# Wall shear stress 
# Time              	patch               	min                 	max                 
0.000000000000e+00	zmax	(0.000000000000e+00 0.000000000000e+00 -8.850586935467e-22)	(0.000000000000e+00 0.000000000000e+00 8.850586935467e-22)
0.000000000000e+00	zmin	(0.000000000000e+00 0.000000000000e+00 -4.424182319806e-22)	(0.000000000000e+00 0.000000000000e+00 4.872284476982e-22)
0.000000000000e+00	body0	(2.684674656759e-03 0.000000000000e+00 0.000000000000e+00)	(1.230862024790e-02 0.000000000000e+00 0.000000000000e+00)
0.000000000000e+00	body1	(2.880766313530e-03 0.000000000000e+00 0.000000000000e+00)	(1.188264906637e-02 0.000000000000e+00 0.000000000000e+00)
0.000000000000e+00	body2	(5.009196612724e-03 -2.039285339448e-12 -1.920388559728e-12)	(6.307472957389e-03 2.715149519100e-12 3.389682572047e-12)
0.000000000000e+00	body3	(3.756880538096e-03 0.000000000000e+00 0.000000000000e+00)	(5.520839273623e-03 0.000000000000e+00 0.000000000000e+00)
0.000000000000e+00	body4	(5.009184531068e-03 -2.746136255484e-15 0.000000000000e+00)	(5.140072435072e-03 0.000000000000e+00 6.681566010377e-15)
0.000000000000e+00	body5	(3.756882554582e-03 0.000000000000e+00 0.000000000000e+00)	(4.719890728176e-03 0.000000000000e+00 0.000000000000e+00)
0.000000000000e+00	body6	(6.440803342398e-03 -1.531250191966e-11 -5.147641043089e-12)	(2.882656942106e-02 5.470072053874e-13 9.299033467582e-13)
0.000000000000e+00	body7	(6.089869661159e-03 -5.573259303364e-13 -5.558933478148e-12)	(3.112978777329e-02 1.343898220220e-11 8.848213242363e-13)
0.000000000000e+00	body8	(3.757355807989e-03 -4.350710249258e-04 -4.306425700133e-06)	(2.451910132309e-02 2.783191341673e-03 8.153964612959e-06)
0.000000000000e+00	body9	(3.760613931378e-03 -2.721900129361e-03 -9.402777015658e-06)	(2.418298284935e-02 4.400436357245e-04 3.142801625319e-06)
0.000000000000e+00	body10	(4.062521522667e-03 -6.625983218782e-04 -9.182634679499e-05)	(5.279899117015e-03 6.621468962700e-04 2.059887242121e-05)
0.000000000000e+00	body11	(5.009173759607e-03 -5.499922791073e-16 -9.183315129437e-17)	(1.506467184576e-02 1.991536435412e-16 2.010608272556e-16)
0.000000000000e+00	body12	(5.009273254540e-03 0.000000000000e+00 0.000000000000e+00)	(1.040609289399e-02 0.000000000000e+00 0.000000000000e+00)
0.000000000000e+00	body13	(5.009215803851e-03 -1.755920502392e-16 -6.557433817941e-18)	(1.003480864750e-02 7.064132211169e-17 2.237281244404e-16)
0.000000000000e+00	body14	(5.009189435718e-03 0.000000000000e+00 0.000000000000e+00)	(1.158814304731e-02 0.000000000000e+00 0.000000000000e+00)
0.000000000000e+00	body15	(3.716297258494e-03 0.000000000000e+00 0.000000000000e+00)	(8.936471019429e-03 0.000000000000e+00 0.000000000000e+00)
0.000000000000e+00	body16	(3.868042309878e-03 -3.959175760963e-04 -2.734199745999e-04)	(1.176108055978e-02 3.914374961104e-04 4.335847047268e-04)
0.000000000000e+00	body17	(3.713286465461e-03 -3.052059197944e-06 0.000000000000e+00)	(9.613124628853e-03 0.000000000000e+00 1.652770892108e-09)
0.000000000000e+00	body18	(3.756889187732e-03 -4.050461723957e-04 -3.633041738444e-04)	(1.233423219243e-02 3.649918478917e-04 4.949680940114e-04)
0.000000000000e+00	body19	(2.822954933538e-03 -1.604318128716e-05 -3.390815842253e-05)	(5.460275047831e-03 5.139961321493e-05 8.340758469542e-05)
0.000000000000e+00	body20	(3.738357424712e-03 -6.293805227102e-04 -6.540296766494e-04)	(7.309447805339e-03 6.289260561932e-04 1.519450361586e-05)
0.000000000000e+00	body21	(3.444373216640e-03 -5.297323363540e-05 -2.733803738997e-05)	(5.875835877087e-03 3.743245252934e-05 1.301611345609e-04)
0.000000000000e+00	body22	(3.756880419141e-03 -1.911158508225e-06 -6.871978140055e-07)	(9.342037710400e-03 1.918300194304e-06 7.657197065327e-04)
0.000000000000e+00	body23	(3.760337538582e-03 -4.295755341938e-05 -1.180760405522e-03)	(2.323849015303e-02 2.551289625367e-05 6.797976870475e-04)
0.000000000000e+00	body24	(3.757352429820e-03 -5.772747256240e-05 -8.046218129143e-04)	(1.583572415607e-02 4.179915561238e-05 6.472219515478e-04)
0.000000000000e+00	body25	(3.759989981842e-03 -2.815426285897e-05 -7.818739478863e-04)	(2.178986487518e-02 4.311226576330e-05 1.108013118187e-03)
0.000000000000e+00	body26	(3.757074108926e-03 -3.348296434836e-05 -6.580073506976e-04)	(1.666804743876e-02 5.781963720716e-05 8.475717066491e-04)
0.000000000000e+00	body27	(3.755367562779e-03 -1.627662760706e-04 -3.616436979680e-05)	(1.191943843607e-02 6.535663595140e-04 3.179742657011e-05)
0.000000000000e+00	body28	(3.757408618228e-03 -6.533975779160e-04 -2.589247207706e-05)	(1.701456803748e-02 1.448807488061e-03 2.718263576652e-05)
0.000000000000e+00	body29	(3.040011962984e-03 -2.345642944056e-25 -3.063186945365e-14)	(1.660494588856e-02 1.634442474034e-25 1.657091734686e-14)
0.000000000000e+00	body30	(2.773826026915e-03 -4.121015741620e-25 -1.548132003728e-14)	(7.964671052968e-03 8.701510816745e-26 1.567725845835e-14)
0.000000000000e+00	body31	(3.755380575176e-03 -6.549324096784e-04 -1.128436077124e-04)	(1.196500316887e-02 3.051213097944e-04 1.337507365499e-04)
0.000000000000e+00	body32	(3.757593200997e-03 -1.614574183468e-03 -5.216114184133e-05)	(1.896130612421e-02 7.365081181375e-04 5.963609451685e-05)
0.000000000000e+00	body33	(2.742735690145e-03 -1.636561440188e-25 -2.018572501805e-14)	(1.850616253923e-02 1.505265213607e-25 1.294126458965e-14)
0.000000000000e+00	body34	(2.776982802094e-03 -1.584285049720e-25 -1.601119085950e-14)	(7.963992250705e-03 1.358575810551e-25 1.396974675089e-14)
0.000000000000e+00	body35	(3.761795039564e-03 -6.383723985265e-04 -2.363130639674e-04)	(5.234294592503e-03 6.409970254835e-04 6.389221682259e-04)
9.633700000000e-01	zmax	(-6.580525376645e-12 -2.099455013236e-12 -1.227211704368e-10)	(4.972223315679e-12 2.099613006691e-12 6.967145416612e-11)
9.633700000000e-01	zmin	(-1.290451496595e-11 -2.864969466140e-12 -9.069200078091e-11)	(7.734936227447e-12 2.858791966294e-12 7.114732636972e-11)
9.633700000000e-01	body0	(1.882573758447e-03 -2.658217815496e-03 -3.195095897090e-03)	(1.398212871849e-02 5.730389430208e-03 9.588692375067e-03)
9.633700000000e-01	body1	(1.806017823694e-03 -5.906935921412e-03 -2.446739119724e-03)	(1.324745656554e-02 2.725690844660e-03 9.267638981346e-03)
9.633700000000e-01	body2	(-3.153039838929e-03 -3.560052714302e-03 -9.200040636421e-03)	(9.352327350684e-03 3.603527563651e-03 1.843000422794e-03)
9.633700000000e-01	body3	(-4.229351820817e-04 -5.371433793521e-03 -6.030907602844e-05)	(3.373070810977e-03 5.907655940059e-03 2.410331455690e-03)
9.633700000000e-01	body4	(-6.521004549183e-04 -1.944035653111e-03 -2.547390456779e-03)	(3.437017949486e-03 1.893945749769e-03 1.250548904286e-03)
9.633700000000e-01	body5	(-2.420576302596e-03 -3.909751090223e-03 -8.023782077526e-04)	(5.697495123198e-03 3.933973893398e-03 3.677112522673e-03)
9.633700000000e-01	body6	(-1.629693453136e-03 -3.073891602978e-03 -7.093803802995e-03)	(1.381622411170e-02 4.547830063855e-03 1.062220028371e-02)
9.633700000000e-01	body7	(-1.613338160850e-03 -5.105053158348e-03 -8.591489922840e-03)	(1.442132029827e-02 3.012506637861e-03 1.038516479841e-02)
9.633700000000e-01	body8	(-5.558233436640e-03 -7.521546191094e-03 -8.185153606445e-03)	(1.237574463875e-02 4.217970757206e-03 2.164754865983e-02)
9.633700000000e-01	body9	(-5.483835998259e-03 -3.287625982278e-03 -7.087109849916e-03)	(1.406205873095e-02 6.399765925440e-03 2.143166535549e-02)
9.633700000000e-01	body10	(-4.490528973859e-04 -2.664481628112e-03 -1.141867342320e-03)	(3.758210196569e-03 2.695999314940e-03 3.708589072907e-03)
9.633700000000e-01	body11	(-3.957769453499e-03 -4.733948127319e-03 -3.025138067615e-03)	(7.383869975573e-03 5.477669081540e-03 5.791344760063e-03)
9.633700000000e-01	body12	(-7.065521772624e-04 -2.218126689919e-03 -2.233651667629e-03)	(3.749502015446e-03 1.051483613069e-03 1.575090665612e-03)
9.633700000000e-01	body13	(-1.721079564756e-03 -2.615039574958e-03 -1.478250645859e-03)	(6.743534241476e-03 2.753913190470e-03 5.697828889890e-03)
9.633700000000e-01	body14	(-7.315144064578e-04 -1.088034827218e-03 -2.264345605175e-03)	(4.144977485420e-03 2.301815078683e-03 1.656243345152e-03)
9.633700000000e-01	body15	(1.520676842665e-04 -6.396313512247e-04 -2.335719574377e-04)	(2.621930108984e-03 1.537710922227e-04 7.845130102792e-04)
9.633700000000e-01	body16	(7.017146444757e-04 -1.430810100245e-04 -5.728755960447e-06)	(4.125605599563e-03 2.812351269605e-03 8.893956214968e-04)
9.633700000000e-01	body17	(1.661936076426e-04 -1.140898533178e-04 -2.431409114698e-04)	(2.828621991206e-03 7.191091388016e-04 7.578244287175e-04)
9.633700000000e-01	body18	(6.032635707800e-04 -3.120581352155e-03 -6.222484265588e-05)	(4.742701107360e-03 1.629134670951e-04 6.599937475334e-04)
9.633700000000e-01	body19	(1.674055343643e-03 -6.303459896852e-04 2.686215433919e-04)	(3.742069883453e-03 -2.332990000811e-06 1.651329423703e-03)
9.633700000000e-01	body20	(-5.304945864199e-03 -1.423016749042e-02 -4.119319585482e-03)	(8.319591395145e-03 1.424416120870e-02 7.465340748725e-03)
9.633700000000e-01	body21	(1.674120407768e-03 -1.596539420529e-05 2.868841021740e-04)	(4.524159861434e-03 7.586620769301e-04 1.790360773937e-03)
9.633700000000e-01	body22	(-7.591425436750e-03 -1.713746296929e-02 -2.040088469709e-03)	(3.295082522574e-03 1.714729646127e-02 3.692248687472e-03)
9.633700000000e-01	body23	(-3.051483159405e-03 -5.554995396524e-03 -2.756878579311e-03)	(1.211895115843e-02 7.438063141931e-03 1.567201982467e-02)
9.633700000000e-01	body24	(-6.660736915823e-03 -3.216050592711e-03 -3.086049410787e-03)	(1.494788243740e-02 8.665999615888e-03 2.171113613684e-02)
9.633700000000e-01	body25	(-3.244622493573e-03 -7.433523396581e-03 -2.627044983185e-03)	(1.217398220755e-02 5.142196415930e-03 1.551678824262e-02)
9.633700000000e-01	body26	(-6.826161967871e-03 -8.712896877704e-03 -3.247569552107e-03)	(1.355585084888e-02 3.234161834481e-03 2.191792595440e-02)
9.633700000000e-01	body27	(-7.000320077220e-03 -1.066966465328e-02 -7.372458865384e-03)	(1.497737415119e-02 1.974548133690e-03 1.342295704224e-02)
9.633700000000e-01	body28	(-1.265657015656e-03 -4.542130184967e-03 -2.181735295817e-03)	(1.043688328931e-02 7.341943181575e-03 6.342055716602e-03)
9.633700000000e-01	body29	(-1.173962734842e-03 -4.151627623657e-03 -4.560348863044e-03)	(9.061820674486e-03 6.915980056447e-03 3.573345391031e-03)
9.633700000000e-01	body30	(1.802064261584e-04 -1.964467773403e-03 -4.514330702059e-03)	(7.433616481642e-03 4.242867546250e-03 2.075869855477e-03)
9.633700000000e-01	body31	(-6.943537331250e-03 -2.508730456345e-03 -7.388634760393e-03)	(1.468353936785e-02 1.038536032973e-02 1.385227947943e-02)
9.633700000000e-01	body32	(-1.136864050611e-03 -8.238654879156e-03 -2.872512975315e-03)	(1.067858718096e-02 4.196988140113e-03 6.785982795827e-03)
9.633700000000e-01	body33	(-1.159544989907e-03 -1.077244125991e-02 -5.425595991820e-03)	(1.025172376736e-02 4.336207268917e-03 4.956658661291e-03)
9.633700000000e-01	body34	(6.636423686851e-04 -7.560433600748e-03 -5.063665440000e-03)	(9.660766752099e-03 9.613853058969e-04 3.035785051162e-03)
9.633700000000e-01	body35	(3.165941523541e-04 -2.664238401687e-03 -3.495670940524e-03)	(1.526895942338e-02 2.600783625137e-03 6.443696966753e-03)
1.963370000000e+00	zmax	(-5.834548575953e-12 -2.285207056868e-12 -1.403136508408e-10)	(6.314376985256e-12 2.285435729810e-12 9.409265507013e-11)
1.963370000000e+00	zmin	(-1.201166633021e-11 -2.808780660155e-12 -9.465531769367e-11)	(8.714827111782e-12 2.813041342659e-12 8.942505434111e-11)
1.963370000000e+00	body0	(9.838670015600e-04 -1.025474257674e-03 -8.066782441636e-03)	(1.056259444181e-02 3.450933717382e-03 3.933578921685e-03)
1.963370000000e+00	body1	(7.271236184384e-04 -3.463993069664e-03 -6.524114093807e-03)	(1.019015754519e-02 1.066278551073e-03 3.755607413499e-03)
1.963370000000e+00	body2	(-1.697195477364e-03 -1.828569668851e-03 -3.405732813507e-03)	(3.249456665471e-03 1.809303875438e-03 1.060330452878e-03)
1.963370000000e+00	body3	(-9.926048063125e-04 -2.122623499006e-03 -2.826739847555e-03)	(2.154799181682e-03 2.177296517297e-03 9.531207531344e-04)
1.963370000000e+00	body4	(-2.837248814335e-04 -8.401114664443e-04 -8.543576764004e-04)	(9.745200676642e-04 7.986108479704e-04 6.276300864655e-04)
1.963370000000e+00	body5	(-2.302292516995e-04 -1.949397059957e-03 -5.605577313567e-05)	(1.571899705135e-03 2.102648781287e-03 1.240069365266e-03)
1.963370000000e+00	body6	(-5.011196383187e-03 -6.029999906311e-03 -6.851880742369e-03)	(1.039692342766e-02 2.006304859839e-03 1.002854601808e-02)
1.963370000000e+00	body7	(-3.690210808723e-03 -1.899846288177e-03 -7.662333028878e-03)	(1.195477481685e-02 6.201701308150e-03 9.454652264375e-03)
1.963370000000e+00	body8	(-9.607684163069e-03 -3.751059876726e-03 -3.627465016913e-03)	(8.086506631090e-03 9.203548928057e-03 9.594729191544e-03)
1.963370000000e+00	body9	(-1.266305117891e-02 -1.431993359240e-02 -3.579634237713e-03)	(9.586123785583e-03 3.784333510084e-03 1.042464637609e-02)
1.963370000000e+00	body10	(-4.777328812812e-04 -3.837280279085e-03 -3.535626478524e-04)	(3.980932145698e-03 3.837550038051e-03 8.068338453438e-03)
1.963370000000e+00	body11	(-5.209662999737e-03 -1.156460874847e-02 -6.585628883444e-04)	(1.435293504809e-03 8.509457872297e-03 4.744755056121e-03)
1.963370000000e+00	body12	(-1.689985063196e-03 -3.741463286770e-03 -2.547905002735e-03)	(6.127732033619e-03 2.042114912277e-03 2.390543257241e-03)
1.963370000000e+00	body13	(-1.487164543807e-03 -3.713526418851e-03 -2.335279392367e-03)	(8.399981793580e-03 3.550046400597e-03 3.325990700965e-03)
1.963370000000e+00	body14	(-2.104294029901e-03 -1.981232626011e-03 -2.460227195188e-03)	(8.494488477766e-03 3.645228870899e-03 2.580440840068e-03)
1.963370000000e+00	body15	(1.770387766381e-03 -1.300101558950e-03 -9.141243427444e-04)	(9.289324566800e-03 1.107564508151e-03 3.359595624461e-03)
1.963370000000e+00	body16	(1.888153569153e-03 -1.580485313574e-03 -9.994563080177e-04)	(1.079950689473e-02 1.688443870798e-03 2.372275249455e-03)
1.963370000000e+00	body17	(1.469111557856e-03 -1.283838764939e-03 -2.099947803810e-03)	(1.009481164092e-02 2.274299645734e-03 1.966113126654e-03)
1.963370000000e+00	body18	(1.664994790967e-03 -9.956763943938e-04 -1.205802081652e-03)	(1.254225823177e-02 1.472719906474e-03 2.765720760660e-03)
1.963370000000e+00	body19	(3.448946604388e-03 -1.160532085092e-03 -2.101326310257e-04)	(6.382020471453e-03 1.005611200794e-05 3.285342650723e-04)
1.963370000000e+00	body20	(-6.434948278028e-03 -1.196359157239e-02 -4.277727066155e-03)	(8.417723079323e-03 1.193275400378e-02 1.558243219587e-02)
1.963370000000e+00	body21	(3.451568456152e-03 3.933240084707e-06 -2.520875008665e-04)	(6.853118530209e-03 1.211292731475e-03 3.561536849181e-04)
1.963370000000e+00	body22	(-7.437517456060e-03 -2.127519828400e-02 -2.384926733109e-03)	(1.036421592989e-02 2.128543285830e-02 2.582938483337e-03)
1.963370000000e+00	body23	(-2.212297879844e-03 -1.995150761277e-03 -3.668118344087e-03)	(1.078224934769e-02 5.764214901515e-03 7.953243185593e-03)
1.963370000000e+00	body24	(-2.843353104685e-03 -6.167126595865e-03 -4.594886219978e-03)	(9.639816369303e-03 5.230274647466e-03 1.102180894503e-02)
1.963370000000e+00	body25	(-2.070620518109e-03 -5.590623213937e-03 -3.798222521139e-03)	(1.103486926889e-02 2.553058952996e-03 7.716149047168e-03)
1.963370000000e+00	body26	(-1.998797421742e-03 -5.267158352679e-03 -2.959362986473e-03)	(9.787535415573e-03 6.410256143513e-03 9.028373233760e-03)
1.963370000000e+00	body27	(-3.954053441837e-03 -1.324280720430e-02 -9.869889567329e-03)	(1.060207946144e-02 1.396979836266e-03 5.534222242286e-03)
1.963370000000e+00	body28	(-1.286343442178e-03 -4.935436614944e-03 -4.537802717189e-03)	(7.631457553025e-03 2.776742107469e-03 3.220200051081e-03)
1.963370000000e+00	body29	(-2.066132852772e-03 -1.099951729072e-02 -2.952310202287e-03)	(7.676116536024e-03 5.945695865360e-03 3.899607570103e-03)
1.963370000000e+00	body30	(3.126731008900e-03 -1.077852894674e-03 -3.049405170792e-03)	(6.089263683918e-03 4.392732911950e-03 2.264002357254e-03)
1.963370000000e+00	body31	(-3.881368407912e-03 -1.122846906297e-03 -8.868358896297e-03)	(1.033219406559e-02 1.289835317520e-02 5.523015054661e-03)
1.963370000000e+00	body32	(-2.978822354042e-03 -2.781428618118e-03 -3.873000211476e-03)	(7.711023067831e-03 4.710658390794e-03 3.401577573619e-03)
1.963370000000e+00	body33	(-3.508720248280e-03 -6.435575922688e-03 -2.966209314241e-03)	(8.030126872343e-03 1.012789749679e-02 4.316286072469e-03)
1.963370000000e+00	body34	(2.410027490318e-03 -5.077267112372e-03 -2.351207627407e-03)	(5.790645637601e-03 8.357409012728e-04 2.229885735398e-03)
1.963370000000e+00	body35	(5.560412100130e-05 -2.488879135156e-03 -2.819439627392e-03)	(5.936777396457e-03 2.469695651508e-03 2.108689003362e-03)
2.963370000000e+00	zmax	(-6.173104559613e-12 -2.535048034919e-12 -1.548070362721e-10)	(6.748541497610e-12 2.536157316758e-12 1.017795321475e-10)
2.963370000000e+00	zmin	(-1.038772448939e-11 -2.864495520596e-12 -9.865329456555e-11)	(9.052079268034e-12 2.863237959673e-12 9.736159751901e-11)
2.963370000000e+00	body0	(1.169722548749e-03 -1.283274911827e-03 -8.142044998292e-03)	(1.119565238000e-02 3.755872638410e-03 4.822628376065e-03)
2.963370000000e+00	body1	(1.051679864123e-03 -3.980208992719e-03 -6.251166724857e-03)	(1.071341542519e-02 1.188086015129e-03 4.639557405720e-03)
2.963370000000e+00	body2	(-2.081028410848e-03 -1.796757823233e-03 -4.659580420855e-03)	(4.412991423738e-03 1.878423102173e-03 5.372549194295e-04)
2.963370000000e+00	body3	(-7.940348315651e-04 -2.146868533851e-03 -4.032856835023e-04)	(1.043303512965e-03 2.099456164989e-03 8.024837328929e-04)
2.963370000000e+00	body4	(-4.035922680843e-04 -2.299455239285e-03 -1.576516957037e-03)	(8.289878875290e-04 2.447473614079e-03 7.831281831093e-04)
2.963370000000e+00	body5	(-1.399467545210e-03 -5.121036004836e-03 -2.231036710836e-04)	(3.837629955346e-03 4.747883323881e-03 2.524266635693e-03)
2.963370000000e+00	body6	(-1.864151204409e-03 -4.805938590605e-03 -3.192534130252e-03)	(1.063282002126e-02 3.445626211633e-03 5.101261167899e-03)
2.963370000000e+00	body7	(-1.564833662285e-03 -2.560136629410e-03 -2.227738276515e-03)	(1.036623618838e-02 4.424089629673e-03 4.013832611503e-03)
2.963370000000e+00	body8	(-2.179220453440e-03 -4.027955766427e-03 -2.514477822889e-03)	(9.854135234506e-03 4.435883040050e-03 1.210075244078e-02)
2.963370000000e+00	body9	(-2.171612017222e-03 -8.600031389043e-03 -3.007043611970e-03)	(7.268818345428e-03 4.722021786829e-03 1.176223653486e-02)
2.963370000000e+00	body10	(-7.384686802882e-04 -4.129399111171e-03 -3.304022471106e-04)	(4.243461315007e-03 4.127941684170e-03 8.518790228537e-03)
2.963370000000e+00	body11	(-2.254253735990e-03 -6.470786561884e-03 -2.207264342066e-03)	(5.419628202010e-03 5.028381097116e-03 3.591534781059e-03)
2.963370000000e+00	body12	(-1.563197611855e-03 -2.529775598995e-03 -2.136360746784e-03)	(5.019253646967e-03 1.989702827414e-03 2.370561641339e-03)
2.963370000000e+00	body13	(-1.087438606055e-03 -2.217321689136e-03 -1.583363520015e-03)	(5.153239508495e-03 2.100782985735e-03 1.936298143337e-03)
2.963370000000e+00	body14	(-2.027405578192e-03 -2.020391347772e-03 -2.021259046589e-03)	(7.004035824592e-03 2.680269601818e-03 2.336920321591e-03)
2.963370000000e+00	body15	(9.906753996175e-04 -1.492808299583e-03 -3.905910123920e-04)	(6.110154757299e-03 5.714850188040e-04 1.026165685123e-03)
2.963370000000e+00	body16	(1.367402380766e-03 -1.045928374247e-03 5.883775475045e-05)	(6.147512249152e-03 5.885146338468e-04 1.133985535250e-03)
2.963370000000e+00	body17	(8.739163603353e-04 -5.928813351676e-04 -3.409740043170e-04)	(6.002222978460e-03 2.350613071157e-03 1.047156212400e-03)
2.963370000000e+00	body18	(1.281393934345e-03 -4.478489605504e-04 1.167329802639e-05)	(6.200981438922e-03 8.670467028723e-04 1.128941235721e-03)
2.963370000000e+00	body19	(3.288186143176e-03 -1.240542818225e-03 3.760593195685e-04)	(6.867426523375e-03 1.602247783251e-06 8.838354071817e-04)
2.963370000000e+00	body20	(-6.107976164142e-03 -1.104992910931e-02 -3.630521511033e-03)	(1.085397742017e-02 1.097294248775e-02 1.702888685921e-02)
2.963370000000e+00	body21	(3.304133360601e-03 5.316012141297e-06 4.154639578134e-04)	(7.689486639864e-03 1.384880760697e-03 9.377591312757e-04)
2.963370000000e+00	body22	(-7.383910627057e-03 -2.050109201313e-02 -2.760664491846e-03)	(7.567306947042e-03 2.051882932295e-02 1.279818624288e-03)
2.963370000000e+00	body23	(-2.736045723629e-03 -5.190475838765e-03 -2.485117578977e-03)	(1.132094495672e-02 6.272491419940e-03 9.708664843865e-03)
2.963370000000e+00	body24	(-2.053028748197e-03 -2.708694099194e-03 -1.780590577557e-03)	(1.035552559198e-02 5.841966470014e-03 1.168842544876e-02)
2.963370000000e+00	body25	(-2.515407100027e-03 -6.227193433805e-03 -2.596919880425e-03)	(1.147408617471e-02 4.705007175291e-03 9.493212606398e-03)
2.963370000000e+00	body26	(-2.185515041222e-03 -5.993477262956e-03 -2.064810770722e-03)	(1.184620733816e-02 2.591556108055e-03 1.204782726419e-02)
2.963370000000e+00	body27	(-2.888044043791e-03 -9.787616062748e-03 -4.172209159238e-03)	(1.157997276640e-02 1.532585078080e-03 6.484980952586e-03)
2.963370000000e+00	body28	(-8.154121698211e-04 -3.064738357280e-03 -4.287364027901e-03)	(8.132352016532e-03 3.180419788702e-03 3.395281232060e-03)
2.963370000000e+00	body29	(-1.068042303302e-03 -7.169169748259e-03 -5.301696481402e-03)	(7.719605636934e-03 4.270529041937e-03 2.589629332934e-03)
2.963370000000e+00	body30	(1.315095298531e-03 -1.896288710516e-03 -4.721594973499e-03)	(6.024832886131e-03 2.994979444981e-03 1.665764589423e-03)
2.963370000000e+00	body31	(-2.903968910055e-03 -1.275832009149e-03 -5.402112168575e-03)	(1.144063987047e-02 9.940616272081e-03 6.593821921395e-03)
2.963370000000e+00	body32	(-1.808715973999e-03 -3.192070338823e-03 -3.613639504918e-03)	(8.272046490402e-03 3.049307839361e-03 3.372221735407e-03)
2.963370000000e+00	body33	(-1.546028936351e-03 -5.606339712700e-03 -4.777083325840e-03)	(7.973780278438e-03 5.995746153368e-03 2.766899290972e-03)
2.963370000000e+00	body34	(2.091754959065e-03 -4.063964002169e-03 -4.251818867109e-03)	(7.171992580283e-03 1.341212357309e-03 2.113449984801e-03)
2.963370000000e+00	body35	(1.107184382479e-04 -2.792637913552e-03 -3.019280689453e-03)	(8.274920053342e-03 2.774409994822e-03 2.831935785510e-03)
3.963370000000e+00	zmax	(-5.900119108698e-12 -2.390484710502e-12 -1.466167819167e-10)	(6.277809394167e-12 2.390840424526e-12 9.719382351462e-11)
3.963370000000e+00	zmin	(-6.413072006277e-12 -2.284358302991e-12 -8.356372646159e-11)	(7.948117787829e-12 2.318015094476e-12 9.108382196618e-11)
3.963370000000e+00	body0	(8.705459271020e-04 -1.086440699567e-03 -6.312875283630e-03)	(1.024373115049e-02 2.812349671751e-03 6.102088727611e-03)
3.963370000000e+00	body1	(7.480911056307e-04 -3.007272817905e-03 -4.870457927419e-03)	(9.746874503014e-03 9.887491003355e-04 6.022686694693e-03)
3.963370000000e+00	body2	(-1.255685670681e-03 -1.690251412668e-03 -2.369116788475e-03)	(2.266356081002e-03 1.544749087196e-03 7.775989524302e-04)
3.963370000000e+00	body3	(-4.571958474316e-04 -1.384905204367e-03 -4.576845447733e-04)	(1.275899572016e-03 1.607743738948e-03 1.072508244493e-03)
3.963370000000e+00	body4	(-4.323038313173e-04 -1.918473789208e-03 -1.131743788382e-03)	(1.224033605182e-03 1.408401551048e-03 7.721760836403e-04)
3.963370000000e+00	body5	(-7.513573876913e-04 -2.644807805536e-03 -1.472664096926e-04)	(1.992832854791e-03 2.753385523877e-03 1.625015078378e-03)
3.963370000000e+00	body6	(-9.047318978238e-04 -2.750710850699e-03 -2.763562763771e-03)	(9.954776818388e-03 3.261079023373e-03 4.868833871883e-03)
3.963370000000e+00	body7	(-1.250830841111e-03 -3.436629662294e-03 -2.150141664078e-03)	(9.675285700656e-03 2.078790541008e-03 5.278135997735e-03)
3.963370000000e+00	body8	(-1.617093540207e-03 -3.577004016093e-03 -1.610063317747e-03)	(4.817684349674e-03 1.893175036218e-03 9.820995538613e-03)
3.963370000000e+00	body9	(-1.937832327694e-03 -5.738975691605e-03 -2.499248484726e-03)	(4.907187649083e-03 3.460499227529e-03 1.026551901383e-02)
3.963370000000e+00	body10	(-8.523789026196e-04 -3.434071363227e-03 -1.523167073328e-04)	(3.380488012793e-03 3.430241126020e-03 7.592587461723e-03)
3.963370000000e+00	body11	(-1.104837679122e-03 -3.658079476415e-03 -1.016467354694e-03)	(3.122777727706e-03 1.384675912195e-03 3.073113913727e-03)
3.963370000000e+00	body12	(-1.286414747798e-03 -2.865289392127e-03 -2.012791245029e-03)	(4.711061544397e-03 1.876187115277e-03 2.011272924175e-03)
3.963370000000e+00	body13	(-9.777967831875e-04 -2.696305614347e-03 -1.934868211144e-03)	(6.288744995817e-03 2.860503157817e-03 4.174641306221e-03)
3.963370000000e+00	body14	(-1.588712751657e-03 -1.903606931033e-03 -1.996552400597e-03)	(5.317763905655e-03 3.088885685592e-03 2.030465063253e-03)
3.963370000000e+00	body15	(7.287777220832e-04 -1.920395172386e-03 -1.544344455926e-04)	(4.970741366134e-03 1.673131507559e-04 1.344884363566e-03)
3.963370000000e+00	body16	(1.264853654287e-03 -9.180788043671e-04 1.001754104940e-04)	(5.205929228280e-03 7.072156988971e-05 1.431211696271e-03)
3.963370000000e+00	body17	(7.281644459715e-04 -1.948951741451e-04 -1.260704006288e-04)	(5.076668232559e-03 2.721594696777e-03 1.481784162415e-03)
3.963370000000e+00	body18	(1.187204099468e-03 -7.853554967127e-05 4.480001082568e-05)	(5.282160584124e-03 8.594366970328e-04 1.595407611343e-03)
3.963370000000e+00	body19	(2.918948213478e-03 -8.884165624188e-04 3.695194668338e-04)	(5.279288139409e-03 -3.619909322610e-05 1.509361482615e-03)
3.963370000000e+00	body20	(-6.804307534748e-03 -1.031661209059e-02 -2.510765622188e-03)	(7.009807603661e-03 1.027721340102e-02 1.471513514869e-02)
3.963370000000e+00	body21	(2.924006390533e-03 3.261616311641e-05 3.638632508866e-04)	(6.236720479736e-03 1.031111367402e-03 1.598707409698e-03)
3.963370000000e+00	body22	(-7.991954529262e-03 -1.833303527658e-02 -2.893378943558e-03)	(5.992125383053e-03 1.835043694915e-02 1.279011819939e-03)
3.963370000000e+00	body23	(-1.476879681886e-03 -2.972799537460e-03 -1.455128798729e-03)	(1.011787460554e-02 5.678562343861e-03 1.026276967034e-02)
3.963370000000e+00	body24	(-1.613025987399e-03 -1.444134060403e-03 -1.199278212374e-03)	(7.609172001625e-03 4.368603481960e-03 9.854567364301e-03)
3.963370000000e+00	body25	(-1.717620453575e-03 -5.590635156264e-03 -1.548625964243e-03)	(1.018096906471e-02 2.737311568014e-03 9.949206535125e-03)
3.963370000000e+00	body26	(-1.485820415220e-03 -4.254014110126e-03 -1.385854460963e-03)	(7.379234203735e-03 2.141943044919e-03 9.552674157917e-03)
3.963370000000e+00	body27	(-2.708459266267e-03 -8.533358680839e-03 -3.313652357585e-03)	(1.036146843646e-02 8.194404691542e-04 6.701349126497e-03)
3.963370000000e+00	body28	(-5.201924344358e-04 -2.243002846405e-03 -3.325198975646e-03)	(7.865817109193e-03 2.637520289885e-03 4.080469798125e-03)
3.963370000000e+00	body29	(-6.995169169929e-04 -4.351305073355e-03 -1.510614087930e-03)	(6.779895050205e-03 3.427762044657e-03 6.586907081899e-03)
3.963370000000e+00	body30	(1.564713340525e-03 -9.328344719122e-04 -1.759867677364e-03)	(4.655644157911e-03 2.414532227326e-03 1.427246533910e-03)
3.963370000000e+00	body31	(-2.797751998351e-03 -8.190630794126e-04 -4.178354844308e-03)	(1.029774795546e-02 8.806114729043e-03 6.388528006194e-03)
3.963370000000e+00	body32	(-8.569931459947e-04 -2.662225598551e-03 -2.716195025890e-03)	(7.950569026856e-03 2.265701230900e-03 4.420061180538e-03)
3.963370000000e+00	body33	(-7.951907443042e-04 -4.175427091657e-03 -1.736540142917e-03)	(6.773114675587e-03 4.040817103445e-03 5.720341345849e-03)
3.963370000000e+00	body34	(1.787815139221e-03 -3.041195034884e-03 -2.007185602651e-03)	(5.129630004880e-03 8.022451168697e-04 1.655149331773e-03)
3.963370000000e+00	body35	(-8.777135929200e-06 -2.116083740552e-03 -2.063660109334e-03)	(4.465719573021e-03 2.090725668768e-03 1.828273752386e-03)
4.963370000000e+00	zmax	(-5.618779836175e-12 -2.442765764249e-12 -1.470621619002e-10)	(5.819323013488e-12 2.443466211654e-12 9.078362110953e-11)
4.963370000000e+00	zmin	(-5.016606968147e-12 -2.086627775232e-12 -7.521441511919e-11)	(7.319545109352e-12 2.134250257795e-12 8.428205011637e-11)
4.963370000000e+00	body0	(1.208287963735e-03 -1.037722177287e-03 -4.108347399405e-03)	(5.985023913794e-03 2.188974828257e-03 4.551937788683e-03)
4.963370000000e+00	body1	(1.158910828011e-03 -2.155224018566e-03 -2.915172430655e-03)	(6.860525846714e-03 1.106741882768e-03 4.594936364648e-03)
4.963370000000e+00	body2	(-9.477479733670e-04 -1.260673796887e-03 -1.286779428278e-03)	(1.702999813822e-03 1.302365841456e-03 9.708360668851e-04)
4.963370000000e+00	body3	(-1.041374286217e-03 -1.193619861471e-03 -1.655548394688e-03)	(1.628848642766e-03 2.150589929734e-03 7.653710969752e-04)
4.963370000000e+00	body4	(-1.206225224097e-04 -9.101443664379e-04 -5.803354526907e-04)	(1.039074370622e-03 8.949154857336e-04 7.677997392152e-04)
4.963370000000e+00	body5	(-2.571674231796e-04 -2.185624792822e-03 -5.893612317181e-05)	(2.162156313757e-03 2.066863247000e-03 1.609509251075e-03)
4.963370000000e+00	body6	(-1.378607786449e-03 -2.646155813425e-03 -2.061172896302e-03)	(5.958735473809e-03 1.524431418789e-03 2.862946891011e-03)
4.963370000000e+00	body7	(-4.347192190290e-04 -2.118736455991e-03 -3.592150843795e-03)	(6.838497144494e-03 1.220516413122e-03 2.996246658184e-03)
4.963370000000e+00	body8	(-1.714435068029e-03 -2.782268296222e-03 -3.557585432717e-03)	(4.935526105475e-03 2.545944758903e-03 8.972825977159e-03)
4.963370000000e+00	body9	(-1.969386206837e-03 -4.027685140185e-03 -2.349087533656e-03)	(4.431596152656e-03 2.666519541092e-03 9.129294864975e-03)
4.963370000000e+00	body10	(-7.150580538997e-04 -3.135733289168e-03 6.995750903650e-05)	(3.106351066331e-03 3.128670732633e-03 7.962311602027e-03)
4.963370000000e+00	body11	(-1.494046698105e-03 -2.399168280625e-03 -1.570575578081e-03)	(2.588318045565e-03 2.897784738009e-03 2.961415954920e-03)