# Forces            
# CofR              : (1.500000000000e+00 0.000000000000e+00 5.000000000000e-01)
# Time              forces(pressure viscous)	moments(pressure viscous)
0                   	((0.000000000000e+00 0.000000000000e+00 0.000000000000e+00) (-9.116703626882e-04 -2.559905285299e-28 -1.710627112160e-17)) ((0.000000000000e+00 0.000000000000e+00 0.000000000000e+00) (-5.123640672090e-18 4.102477389206e-04 2.740672600954e-04))
0.00667             	((2.399778648678e-05 -3.598937253692e-07 2.489788397081e+00) (-1.057339520844e-03 2.134142028584e-05 7.273079125827e-05)) ((7.488136170007e-01 3.109454852261e+00 -6.767963086821e-06) (3.155054382900e-05 5.685163025651e-04 2.947031624731e-04))
0.01334             	((-1.142087821541e-04 4.629949619896e-07 -1.257719906230e+00) (-7.807322469947e-04 -7.181111949624e-06 1.021623160983e-04)) ((-3.782733785969e-01 -1.572668045278e+00 3.377063866683e-05) (2.756607575667e-05 4.798986730429e-04 2.450787733754e-04))
0.02001             	((3.576601260729e-05 -5.312589538150e-08 1.105330933000e-01) (-7.054795785007e-04 9.215429583082e-07 1.086596309608e-04)) ((3.325723262233e-02 1.390248838985e-01 -1.069446936122e-05) (3.317965761567e-05 4.546438134681e-04 2.124683784144e-04))
0.02668             	((5.856720948997e-05 -5.162821181164e-08 8.179780778429e-02) (-7.030891574111e-04 -3.129270574059e-06 1.291628358851e-04)) ((2.460310782809e-02 1.026836383058e-01 -1.755100822987e-05) (3.754429187962e-05 4.797160284556e-04 2.167246404323e-04))
0.03335             	((-1.523004075551e-04 9.772658996295e-08 -1.215942635865e-01) (-6.609273766114e-04 -5.773785814148e-06 1.451105118793e-04)) ((-3.656371259766e-02 -1.521929229852e-01 4.567481122101e-05) (4.116702214728e-05 4.811697474577e-04 2.071315835584e-04))
0.04002             	((-1.846422815814e-05 8.967999684553e-09 -9.517344319847e-03) (-6.292180866900e-04 -3.450426173014e-06 1.567844685783e-04)) ((-2.855147260248e-03 -1.159016232133e-02 5.528238560777e-06) (4.574365242312e-05 4.821309946507e-04 1.945947649053e-04))
0.04669             	((-5.985789192178e-05 2.366303186602e-08 -2.155899064305e-02) (-6.010665743532e-04 -4.124102490312e-07 1.682440987648e-04)) ((-6.476742646921e-03 -2.676001806244e-02 1.795311035699e-05) (5.058478737431e-05 4.845128062451e-04 1.822344384150e-04))
0.05336             	((-1.102579446598e-04 3.635119526405e-08 -2.933932402967e-02) (-5.712664380947e-04 4.260245145825e-06 1.777871072729e-04)) ((-8.816180379245e-03 -3.657145739336e-02 3.308612397435e-05) (5.559501597708e-05 4.838079571139e-04 1.673311383849e-04))
0.06003             	((-8.672103862273e-05 2.443349024811e-08 -1.775699236747e-02) (-5.430076803933e-04 9.909246657220e-06 1.854492477655e-04)) ((-5.332465638037e-03 -2.202059387136e-02 2.601222712842e-05) (6.049065767045e-05 4.814956832193e-04 1.516741139272e-04))
0.0667              	((-1.029406854721e-04 2.517178689696e-08 -1.673654052603e-02) (-5.154613255049e-04 1.511169304343e-05 1.925745175531e-04)) ((-5.025617237868e-03 -2.076758890973e-02 3.087960294158e-05) (6.503287901284e-05 4.788741853501e-04 1.367731884090e-04))
0.07337             	((-9.541962904070e-05 2.049826246176e-08 -1.262774391271e-02) (-4.885549428378e-04 1.967134060950e-05 1.983645171879e-04)) ((-3.789820598611e-03 -1.560864708923e-02 2.861186669595e-05) (6.889117264665e-05 4.748909103540e-04 1.228507335959e-04))
0.08337             	((-5.764540712716e-05 1.036928972566e-08 -5.813394531409e-03) (-4.576212818432e-04 2.229221951695e-05 2.092599567950e-04)) ((-1.740545051658e-03 -7.035331678789e-03 1.724663209898e-05) (7.343183498467e-05 4.760718443535e-04 1.101054949590e-04))
0.09337             	((4.098586185284e-06 -6.280963437257e-10 3.260797667393e-04) (-4.272221891284e-04 2.449905863923e-05 2.177817090695e-04)) ((1.062000745523e-04 7.154989421901e-04 -1.333479707739e-06) (7.707907681114e-05 4.745555146775e-04 9.804308032427e-05))
0.10337             	((1.083777046671e-04 -1.434644732995e-08 6.989752385061e-03) (-3.993265910149e-04 2.701525384278e-05 2.241809227802e-04)) ((2.110558048567e-03 9.154216710342e-03 -3.270589482781e-05) (8.024226928264e-05 4.715368169764e-04 8.634635069333e-05))
0.11337             	((2.475433212986e-04 -2.854892195365e-08 1.323029934745e-02) (-3.739272191971e-04 2.954903901532e-05 2.289398046433e-04)) ((3.987596340159e-03 1.707961183237e-02 -7.457240472198e-05) (8.293455537311e-05 4.676055918555e-04 7.538106860199e-05))
0.12337             	((4.538993030900e-04 -4.596848957458e-08 2.047372126830e-02) (-3.508570364490e-04 3.148552058715e-05 2.313733052716e-04)) ((6.166149840217e-03 2.630484482159e-02 -1.366435483111e-04) (8.466325142098e-05 4.617790378926e-04 6.586835240675e-05))
0.13337             	((7.024061023936e-04 -6.265910545679e-08 2.715474787665e-02) (-3.298572846509e-04 3.291196838514e-05 2.315794648497e-04)) ((8.175435884388e-03 3.483737074222e-02 -2.113918789636e-04) (8.549614556524e-05 4.540370182229e-04 5.762125608807e-05))
0.14337             	((1.017682548410e-03 -8.018032764049e-08 3.417011947295e-02) (-3.104571407350e-04 3.456217724688e-05 2.290200152944e-04)) ((1.028516927471e-02 4.382024622139e-02 -3.062185300490e-04) (8.561483101284e-05 4.434400249231e-04 4.956321347250e-05))
0.15337             	((1.389521059331e-03 -9.663922183705e-08 4.099110141315e-02) (-2.922815383587e-04 3.692705703739e-05 2.235691224446e-04)) ((1.233631556314e-02 5.257603539428e-02 -4.180538890541e-04) (8.521816310307e-05 4.296186362250e-04 4.094496140839e-05))
0.16337             	((1.818518703860e-03 -1.113002651120e-07 4.761635946033e-02) (-2.748878617849e-04 4.008539581636e-05 2.154606711008e-04)) ((1.432849994070e-02 6.110211719179e-02 -5.470776168905e-04) (8.442221683315e-05 4.126327043258e-04 3.152449555021e-05))
0.17337             	((2.308546590941e-03 -1.237602672302e-07 5.414213930467e-02) (-2.581236411896e-04 4.428931151533e-05 2.046928072034e-04)) ((1.629077775011e-02 6.952168652995e-02 -6.944575131157e-04) (8.335746540001e-05 3.923736527942e-04 2.092752915198e-05))
0.18337             	((2.848525359734e-03 -1.325882628877e-07 6.032953599876e-02) (-2.421067250408e-04 4.934464823059e-05 1.919959800925e-04)) ((1.815123902134e-02 7.752452158317e-02 -8.568603249706e-04) (8.216174530615e-05 3.698066597465e-04 9.426677906537e-06))
0.19337             	((3.448982754609e-03 -1.376830962020e-07 6.645794003901e-02) (-2.271790817732e-04 5.486494653422e-05 1.782109583478e-04)) ((1.999386968400e-02 8.546702450791e-02 -1.037449315055e-03) (8.090915125496e-05 3.461576441148e-04 -2.387546641684e-06))
0.20337             	((4.097921316650e-03 -1.377262765113e-07 7.233213939046e-02) (-2.139341460162e-04 6.009607077585e-05 1.641441621323e-04)) ((2.175996405142e-02 9.309663722953e-02 -1.232616640873e-03) (7.947741887394e-05 3.227613200908e-04 -1.336215645476e-05))
0.21337             	((4.793074450305e-03 -1.319497874784e-07 7.798965242673e-02) (-2.029537557944e-04 6.519963370001e-05 1.503308286161e-04)) ((2.346087377922e-02 1.004606575401e-01 -1.441684318778e-03) (7.810555209566e-05 3.006254397112e-04 -2.354714980185e-05))
0.22337             	((5.531960913732e-03 -1.196835242284e-07 8.346676100559e-02) (-1.944262892541e-04 6.991679419220e-05 1.372027202026e-04)) ((2.510757063500e-02 1.076033826393e-01 -1.663910511997e-03) (7.679516273109e-05 2.804430769072e-04 -3.253483078933e-05))
0.23337             	((6.308195632744e-03 -1.001405714225e-07 8.874651562404e-02) (-1.882174674899e-04 7.434229163061e-05 1.245636367037e-04)) ((2.669496376593e-02 1.145006632437e-01 -1.897376888530e-03) (7.553273107964e-05 2.619252600153e-04 -4.048051298305e-05))
0.24337             	((7.122810336051e-03 -7.271732143446e-08 9.392424354249e-02) (-1.842109785178e-04 7.865566658756e-05 1.122527545128e-04)) ((2.825171332569e-02 1.212732309094e-01 -2.142394438682e-03) (7.435968973385e-05 2.448342912918e-04 -4.765094364086e-05))
0.25337             	((7.968393121793e-03 -3.659563530991e-08 9.897727306643e-02) (-1.821918642607e-04 8.299738305936e-05 1.002525480873e-04)) ((2.977099418973e-02 1.278909402651e-01 -2.396735106259e-03) (7.334344075410e-05 2.290686045789e-04 -5.429156452211e-05))
0.26337             	((8.841549476154e-03 8.887235622255e-09 1.039435922533e-01) (-1.819825501536e-04 8.742811654867e-05 8.878931480626e-05)) ((3.126420719159e-02 1.344022873062e-01 -2.659377294834e-03) (7.258517332145e-05 2.148635838964e-04 -6.053858603352e-05))
0.27337             	((9.737375149971e-03 6.427574663376e-08 1.088443141246e-01) (-1.835313513041e-04 9.188237299331e-05 7.806839660585e-05)) ((3.273767604290e-02 1.408337300253e-01 -2.928844633961e-03) (7.211492637696e-05 2.024964809260e-04 -6.632311722161e-05))
0.28337             	((1.065288229352e-02 1.300017913973e-07 1.137242018061e-01) (-1.867763365353e-04 9.626669564146e-05 6.820445856558e-05)) ((3.420487654102e-02 1.472428358636e-01 -3.204240255822e-03) (7.192003150939e-05 1.921265077899e-04 -7.153914820305e-05))
0.29337             	((1.157802899425e-02 2.063949545516e-07 1.185548880024e-01) (-1.916799216533e-04 1.005053164186e-04 5.893986206921e-05)) ((3.565737797843e-02 1.535947116536e-01 -3.482554487830e-03) (7.188387621977e-05 1.834346277996e-04 -7.609068400058e-05))
0.30337             	((1.249567567422e-02 2.935294726937e-07 1.232484660637e-01) (-1.982646318458e-04 1.047573014198e-04 4.993285654965e-05)) ((3.706886913724e-02 1.597783887617e-01 -3.758646909049e-03) (7.198991886570e-05 1.760125889674e-04 -8.017252656413e-05))
0.31337             	((1.342183924326e-02 3.919319451974e-07 1.280499514600e-01) (-2.063813526372e-04 1.091692415270e-04 4.082417557617e-05)) ((3.851290675353e-02 1.661090757666e-01 -4.037324034841e-03) (7.221226416423e-05 1.693226835342e-04 -8.401890225471e-05))
0.32337             	((1.432452375266e-02 5.008421246176e-07 1.327339264073e-01) (-2.159882731907e-04 1.139219819666e-04 3.150845315253e-05)) ((3.992193819993e-02 1.723028030529e-01 -4.308989148289e-03) (7.262320928792e-05 1.632194844424e-04 -8.788297784700e-05))
0.33337             	((1.513700784777e-02 6.175174894049e-07 1.367898288487e-01) (-2.276065211457e-04 1.195064590889e-04 2.171632322773e-05)) ((4.114286003619e-02 1.777121564125e-01 -4.553624643402e-03) (7.342143142714e-05 1.576513956188e-04 -9.227134206371e-05))
0.34337             	((1.584909499649e-02 7.402400109415e-07 1.402507826041e-01) (-2.419229659200e-04 1.259010421068e-04 1.098708783225e-05)) ((4.218548943859e-02 1.823833099806e-01 -4.768150484382e-03) (7.447150860629e-05 1.524218035830e-04 -9.696075188282e-05))
0.35337             	((1.643351736096e-02 8.660206748489e-07 1.429878806753e-01) (-2.600323324682e-04 1.333992158132e-04 -1.911792446824e-06)) ((4.301103873191e-02 1.861533262699e-01 -4.944362144569e-03) (7.558951611388e-05 1.465558373849e-04 -1.020216124079e-04))
0.36337             	((1.686016297009e-02 9.912058606049e-07 1.448416515195e-01) (-2.813761845276e-04 1.401627470873e-04 -1.922894741840e-05)) ((4.357141215002e-02 1.888175784460e-01 -5.073183432168e-03) (7.506686950274e-05 1.367877588400e-04 -1.051644781796e-04))
0.37337             	((1.719861724010e-02 1.117887092578e-06 1.464894931495e-01) (-3.027037461747e-04 1.440224534510e-04 -4.058704934649e-05)) ((4.406891893675e-02 1.912374957602e-01 -5.175376299051e-03) (7.174160934413e-05 1.217798486789e-04 -1.044367235555e-04))
0.38337             	((1.752892826479e-02 1.250314934523e-06 1.486621175219e-01) (-3.239933913823e-04 1.417299578438e-04 -5.993264512415e-05)) ((4.472258497635e-02 1.943466106248e-01 -5.274928081263e-03) (6.545147222883e-05 1.096582129516e-04 -9.544889991898e-05))
0.39337             	((1.783483771332e-02 1.387240216710e-06 1.512654185811e-01) (-3.525541621184e-04 1.293125842962e-04 -6.725701797346e-05)) ((4.550589618802e-02 1.980338574228e-01 -5.367155306605e-03) (5.671372346973e-05 1.183022877519e-04 -7.060432245593e-05))
0.40337             	((1.810236382272e-02 1.527212160030e-06 1.542336444407e-01) (-3.862479583666e-04 1.182756912575e-04 -6.678184402943e-05)) ((4.639984903026e-02 2.022242723927e-01 -5.447940952701e-03) (5.100566144086e-05 1.409804286245e-04 -4.598651548094e-05))
0.41337             	((1.837218811679e-02 1.673576182884e-06 1.579767791111e-01) (-4.215570937291e-04 1.132082873779e-04 -6.723572058271e-05)) ((4.752659365972e-02 2.074445308289e-01 -5.529386650418e-03) (4.853273929767e-05 1.639064767967e-04 -2.887799489002e-05))
0.42337             	((1.855338768034e-02 1.818100791695e-06 1.617864248402e-01) (-4.613097798225e-04 1.124248542419e-04 -7.015345227740e-05)) ((4.867337462576e-02 2.127879212807e-01 -5.584169746764e-03) (4.791097110591e-05 1.867633054322e-04 -1.619097649567e-05))
0.43337             	((1.856420662148e-02 1.951169190907e-06 1.649987652926e-01) (-5.064338195852e-04 1.155781595525e-04 -7.483289139069e-05)) ((4.964064612230e-02 2.173977608993e-01 -5.587698729845e-03) (4.921590381485e-05 2.111515894897e-04 -7.205164766337e-06))
0.44337             	((1.841720749276e-02 2.071631474610e-06 1.677395924434e-01) (-5.522696102028e-04 1.207352851987e-04 -8.230075033403e-05)) ((5.046612737910e-02 2.214387117678e-01 -5.543735174006e-03) (5.100142624901e-05 2.328426064438e-04 -7.144805741709e-07))
0.45337             	((1.818324634268e-02 2.185382536406e-06 1.706723265354e-01) (-5.959504117574e-04 1.249940678481e-04 -9.196097712505e-05)) ((5.134864190069e-02 2.257599939908e-01 -5.473519907731e-03) (5.164154101205e-05 2.508397385676e-04 6.365266594924e-06))
0.46337             	((1.781035837350e-02 2.285129325768e-06 1.733408903471e-01) (-6.349988671355e-04 1.270238425245e-04 -1.025891106631e-04)) ((5.215126194195e-02 2.297758156821e-01 -5.361445475502e-03) (5.062400939614e-05 2.651632584003e-04 1.510881519222e-05))
0.47337             	((1.726632529936e-02 2.364974331481e-06 1.754081070416e-01) (-6.703355213275e-04 1.270097367017e-04 -1.130454259724e-04)) ((5.277277312563e-02 2.330433723043e-01 -5.197838484816e-03) (4.835996863924e-05 2.778460581652e-04 2.556014398535e-05))
0.48337             	((1.660032545803e-02 2.429295155620e-06 1.773196583702e-01) (-7.059121176974e-04 1.273331872134e-04 -1.215840788164e-04)) ((5.334739343240e-02 2.361418610627e-01 -4.997515558843e-03) (4.689246355072e-05 2.937837851287e-04 3.566996650430e-05))
0.49337             	((1.580675604772e-02 2.476058090020e-06 1.789790555937e-01) (-7.464012067091e-04 1.296525925407e-04 -1.287940516719e-04)) ((5.384576779407e-02 2.389366487228e-01 -4.758760928308e-03) (4.715428647805e-05 3.152663538310e-04 4.458374057674e-05))
0.50337             	((1.487101660819e-02 2.500991772197e-06 1.801395948657e-01) (-7.935676687000e-04 1.345698393129e-04 -1.372715875617e-04)) ((5.419425581719e-02 2.410996572875e-01 -4.477231489205e-03) (4.881395055677e-05 3.400351422751e-04 5.200254820291e-05))
0.51337             	((1.376282713552e-02 2.495627066273e-06 1.802512123857e-01) (-8.454265303559e-04 1.411519538316e-04 -1.494781533675e-04)) ((5.422750336047e-02 2.418983711184e-01 -4.143813697435e-03) (5.054492296192e-05 3.635112591362e-04 5.857878173236e-05))
0.52337             	((1.254093414963e-02 2.467781666474e-06 1.798051716898e-01) (-8.979439203768e-04 1.478765159294e-04 -1.641349182156e-04)) ((5.409292714577e-02 2.419682277316e-01 -3.776159248762e-03) (5.170915164943e-05 3.847552738529e-04 6.517307854542e-05))
0.53337             	((1.123618848214e-02 2.422228075320e-06 1.790205716047e-01) (-9.504408583886e-04 1.545331185867e-04 -1.789258026933e-04)) ((5.385615928003e-02 2.415839293304e-01 -3.383539235412e-03) (5.285028621283e-05 4.064176870070e-04 7.187764910755e-05))
0.54337             	((9.838785272854e-03 2.354656314626e-06 1.774719238538e-01) (-1.003222299582e-03 1.610299497983e-04 -1.955363925880e-04)) ((5.338978758384e-02 2.401735182633e-01 -2.963038718873e-03) (5.339167184334e-05 4.263041502543e-04 7.892462626368e-05))
0.55337             	((8.346325559169e-03 2.258441319115e-06 1.745992145429e-01) (-1.053056389797e-03 1.680105729779e-04 -2.159666228093e-04)) ((5.252545607142e-02 2.369670914317e-01 -2.513927304514e-03) (5.317777854152e-05 4.393303129315e-04 8.446595788091e-05))
0.56337             	((6.877663948187e-03 2.159352463426e-06 1.724035071181e-01) (-1.098408709900e-03 1.766741436935e-04 -2.391293434237e-04)) ((5.186508536408e-02 2.346755094399e-01 -2.071984386447e-03) (5.338395060337e-05 4.458555111136e-04 8.638168505719e-05))
0.57337             	((5.348560903946e-03 2.027794827133e-06 1.684848552465e-01) (-1.137082482699e-03 1.871215348235e-04 -2.622498836437e-04)) ((5.068638540227e-02 2.299957469639e-01 -1.611810171979e-03) (5.493536107897e-05 4.480718439790e-04 8.386967733578e-05))
0.58337             	((3.857583281883e-03 1.890370969716e-06 1.648797057550e-01) (-1.164935941400e-03 1.951329439956e-04 -2.829832090360e-04)) ((4.960187216584e-02 2.257247924529e-01 -1.163090724438e-03) (5.551594937894e-05 4.461136271301e-04 8.160014681414e-05))
0.59337             	((2.394551381085e-03 1.739236477933e-06 1.608816837836e-01) (-1.180026145326e-03 2.016290674819e-04 -3.003998070340e-04)) ((4.839928843037e-02 2.209019094810e-01 -7.227596136410e-04) (5.602327503998e-05 4.396393198958e-04 7.769131654655e-05))
0.60337             	((9.796865223964e-04 1.580256637547e-06 1.568745152237e-01) (-1.181213962750e-03 2.098032335189e-04 -3.146417262008e-04)) ((4.719397083763e-02 2.160326473839e-01 -2.969040836646e-04) (5.871527244962e-05 4.273464265601e-04 6.729340637216e-05))
0.61337             	((-3.798433375511e-04 1.416492801883e-06 1.529586615259e-01) (-1.169078120125e-03 2.219988076805e-04 -3.286472793129e-04)) ((4.601610601981e-02 2.112492179693e-01 1.123158252284e-04) (6.444788350640e-05 4.052398652101e-04 4.727804968228e-05))
0.62337             	((-1.675790341683e-03 1.246694599561e-06 1.487673725844e-01) (-1.148718477365e-03 2.357411924610e-04 -3.441576371457e-04)) ((4.475519875917e-02 2.060448467359e-01 5.024183295346e-04) (7.089887649452e-05 3.744562116755e-04 2.267077969510e-05))
0.63337             	((-2.904276689896e-03 1.077105037672e-06 1.447604654645e-01) (-1.136993471530e-03 2.441770838139e-04 -3.522067754966e-04)) ((4.354883303059e-02 2.010591982581e-01 8.722084331696e-04) (7.565151917782e-05 3.600763949047e-04 8.195865540931e-06))
0.64337             	((-4.070741097816e-03 9.113161985360e-07 1.411360078935e-01) (-1.152416904969e-03 2.480649925295e-04 -3.559359458560e-04)) ((4.245673862842e-02 1.965657601428e-01 1.223297015620e-03) (7.826871915040e-05 3.716184624730e-04 8.327750322301e-06))
0.65337             	((-5.146314265408e-03 7.458115962230e-07 1.369769316077e-01) (-1.189502204092e-03 2.502947892287e-04 -3.625077160850e-04)) ((4.120408260359e-02 1.912588818934e-01 1.547023374788e-03) (7.871321039681e-05 3.951533746578e-04 1.735253171888e-05))
0.66337             	((-6.145430296315e-03 5.874090189276e-07 1.329781668301e-01) (-1.223771153139e-03 2.494788618216e-04 -3.731148802006e-04)) ((3.999909852388e-02 1.861214178241e-01 1.847689348948e-03) (7.554148942964e-05 4.106824055362e-04 2.982974249574e-05))
0.67337             	((-7.075344363115e-03 4.376526740836e-07 1.292517805334e-01) (-1.243943816346e-03 2.442197574386e-04 -3.815120651011e-04)) ((3.887542754619e-02 1.813173798114e-01 2.127457602378e-03) (6.954072898445e-05 4.183041856185e-04 4.426805145322e-05))
0.68337             	((-7.920284825412e-03 2.959617754769e-07 1.254765336187e-01) (-1.251828188656e-03 2.370616903764e-04 -3.822749912091e-04)) ((3.773710024968e-02 1.763862531595e-01 2.381611686709e-03) (6.425675363404e-05 4.267691447198e-04 5.762150402538e-05))
0.69337             	((-8.687326575930e-03 1.630867985130e-07 1.217938608164e-01) (-1.255557049286e-03 2.306577844018e-04 -3.788645000643e-04)) ((3.662680006800e-02 1.715391785331e-01 2.612290929230e-03) (6.066994945943e-05 4.372980178133e-04 6.866480597344e-05))
0.70337             	((-9.348040532954e-03 3.817009254057e-08 1.178319538976e-01) (-1.253324406894e-03 2.275925412164e-04 -3.734120822755e-04)) ((3.543277804912e-02 1.662435055428e-01 2.810958224083e-03) (6.011871552431e-05 4.455019060286e-04 7.329792956782e-05))
0.71337             	((-9.933206025703e-03 -7.850244640525e-08 1.140259659287e-01) (-1.248006197530e-03 2.289339760382e-04 -3.649312643789e-04)) ((3.428571919332e-02 1.611285554676e-01 2.986861445975e-03) (6.373457866999e-05 4.548976022127e-04 7.091249553270e-05))
0.72337             	((-1.047538266062e-02 -1.880439400831e-07 1.106809282411e-01) (-1.247609603697e-03 2.328321878757e-04 -3.548390238364e-04)) ((3.327790175253e-02 1.566458397849e-01 3.149849001464e-03) (6.969103141300e-05 4.696010443423e-04 6.645687748064e-05))
0.73337             	((-1.094831700389e-02 -2.911657206789e-07 1.074347616102e-01) (-1.253328825603e-03 2.340893817300e-04 -3.471511303256e-04)) ((3.230013504558e-02 1.522780455129e-01 3.292011362000e-03) (7.280520680937e-05 4.849808660708e-04 6.749060571048e-05))
0.74337             	((-1.130310061669e-02 -3.860807274926e-07 1.038126832441e-01) (-1.258084334465e-03 2.344386507564e-04 -3.395968846610e-04)) ((3.120947374492e-02 1.473376756959e-01 3.398628136217e-03) (7.508308654443e-05 4.987791226970e-04 6.948477241142e-05))
0.75337             	((-1.156246231127e-02 -4.722208364492e-07 1.000671623239e-01) (-1.260930222281e-03 2.378249777769e-04 -3.283101324132e-04)) ((3.008179013801e-02 1.421964340849e-01 3.476532208628e-03) (8.070411563788e-05 5.156063818774e-04 6.670554773906e-05))
0.76337             	((-1.172411084279e-02 -5.487030996041e-07 9.618349572005e-02) (-1.269156673341e-03 2.423189820403e-04 -3.134236969499e-04)) ((2.891288230643e-02 1.368307682246e-01 3.525063358049e-03) (8.815659921546e-05 5.408187687273e-04 6.397885379841e-05))
0.77337             	((-1.180494968502e-02 -6.160083004398e-07 9.229477922606e-02) (-1.284795204305e-03 2.416814630659e-04 -2.991749303988e-04)) ((2.774262111151e-02 1.314337940482e-01 3.549292965507e-03) (9.143209371950e-05 5.701371188706e-04 7.043127199339e-05))
0.78337             	((-1.181270305316e-02 -6.748712545688e-07 8.843795107763e-02) (-1.298428581073e-03 2.357490790760e-04 -2.873987774499e-04)) ((2.658198269387e-02 1.260602300923e-01 3.551531200409e-03) (8.988368229869e-05 5.939123845241e-04 8.342226461926e-05))
0.79337             	((-1.173953346473e-02 -7.253883069923e-07 8.452978926491e-02) (-1.303992941872e-03 2.303958696955e-04 -2.718279322565e-04)) ((2.540595839001e-02 1.205931053092e-01 3.529425284814e-03) (8.987197218563e-05 6.161697900099e-04 9.308494437102e-05))
0.80337             	((-1.158102540291e-02 -7.676482038291e-07 8.052079597387e-02) (-1.308647716487e-03 2.280719892256e-04 -2.528978855605e-04)) ((2.419986837401e-02 1.149659688943e-01 3.481678744172e-03) (9.311636412650e-05 6.417667018794e-04 9.824702426051e-05))
0.81337             	((-1.133230000440e-02 -8.015871536481e-07 7.636204916083e-02) (-1.316017175888e-03 2.274207881105e-04 -2.331845772594e-04)) ((2.294895456231e-02 1.091079886857e-01 3.406821848135e-03) (9.781100536258e-05 6.699306129910e-04 1.018697624493e-04))
0.82337             	((-1.099294971981e-02 -8.272184783472e-07 7.203646059438e-02) (-1.323087836073e-03 2.268032051761e-04 -2.148913045428e-04)) ((2.164809375929e-02 1.029990689952e-01 3.304737725792e-03) (1.020618653571e-04 6.954643209969e-04 1.052727969728e-04))
0.83337             	((-1.054624498081e-02 -8.426823049063e-07 6.742097721387e-02) (-1.322887682855e-03 2.257947906653e-04 -1.981811188908e-04)) ((2.026030173241e-02 9.645636672786e-02 3.170398833743e-03) (1.055098141391e-04 7.130672263583e-04 1.069204617202e-04))
0.84337             	((-9.991444729108e-03 -8.466360254648e-07 6.249988649634e-02) (-1.309930119841e-03 2.257441186333e-04 -1.828178464238e-04)) ((1.878077284662e-02 8.945521270614e-02 3.003570092622e-03) (1.092285982904e-04 7.191862693956e-04 1.033481200755e-04))
0.85337             	((-9.376464800781e-03 -8.416610309292e-07 5.755256261203e-02) (-1.287003682035e-03 2.268597593651e-04 -1.687908770488e-04)) ((1.729342520544e-02 8.240602883412e-02 2.818650348561e-03) (1.133701601661e-04 7.160898836773e-04 9.512838362756e-05))
0.86337             	((-8.696660638196e-03 -8.258542150374e-07 5.251821598509e-02) (-1.257762340031e-03 2.298764148472e-04 -1.563218354290e-04)) ((1.578000964766e-02 7.521920173503e-02 2.614245482119e-03) (1.183964419396e-04 7.063163284505e-04 8.238946874323e-05))
0.87337             	((-7.948002416822e-03 -7.971700935969e-07 4.734237459719e-02) (-1.222406462678e-03 2.350556427642e-04 -1.454060664948e-04)) ((1.422412032643e-02 6.781655149550e-02 2.389136688236e-03) (1.244821134025e-04 6.901569840699e-04 6.484516311276e-05))
0.88337             	((-7.175717007789e-03 -7.588289603581e-07 4.226179775179e-02) (-1.183544391987e-03 2.412944373144e-04 -1.354543319901e-04)) ((1.269681404005e-02 6.054936610618e-02 2.156905193665e-03) (1.309836339467e-04 6.704110166533e-04 4.477205961329e-05))
0.89337             	((-6.382152944809e-03 -7.102265581731e-07 3.725262855851e-02) (-1.145211198492e-03 2.471144601555e-04 -1.265812304314e-04)) ((1.119113821371e-02 5.338442085327e-02 1.918293379691e-03) (1.367981838895e-04 6.498787819169e-04 2.535455918510e-05))
0.90337             	((-5.550027126414e-03 -6.484941734812e-07 3.217919536373e-02) (-1.109977425592e-03 2.519187697975e-04 -1.188072446638e-04)) ((9.666212142700e-03 4.612883706393e-02 1.668085645927e-03) (1.415081024501e-04 6.303578313059e-04 8.147682991596e-06))
0.91337             	((-4.684732026857e-03 -5.733268566338e-07 2.704029003116e-02) (-1.079336422549e-03 2.561056271460e-04 -1.119040923435e-04)) ((8.121647513462e-03 3.878241633730e-02 1.407898257531e-03) (1.454818127898e-04 6.131915048266e-04 -6.931388126698e-06))
0.92337             	((-3.770572546836e-03 -4.821557549190e-07 2.171276031307e-02) (-1.054894433736e-03 2.595516272631e-04 -1.064447007746e-04)) ((6.520368525438e-03 3.116240327621e-02 1.132999551169e-03) (1.484717260133e-04 5.987196029622e-04 -1.922955703910e-05))
0.93337             	((-2.793671925968e-03 -3.724310892334e-07 1.608358058621e-02) (-1.038700931863e-03 2.606159556503e-04 -1.035011155866e-04)) ((4.828404577905e-03 2.309681119659e-02 8.392148884207e-04) (1.490175960058e-04 5.868728029928e-04 -2.590827300133e-05))
0.94337             	((-1.738113311716e-03 -2.410324621150e-07 1.002518731586e-02) (-1.029463652879e-03 2.592748454989e-04 -1.042009472723e-04)) ((3.007248511890e-03 1.439358486792e-02 5.217267095923e-04) (1.467946901444e-04 5.751331447267e-04 -2.730985354500e-05))
0.95337             	((-6.417559751533e-04 -9.237883413423e-08 3.716148586914e-03) (-1.022973000722e-03 2.562495205072e-04 -1.090275099918e-04)) ((1.110645892757e-03 5.306770031443e-03 1.919336255003e-04) (1.421898407245e-04 5.598526004788e-04 -2.565661665722e-05))
0.96337             	((4.266590004693e-04 6.363823219741e-08 -2.485500473666e-03) (-1.014704896116e-03 2.515920508049e-04 -1.169102863714e-04)) ((-7.537205426688e-04 -3.636434127769e-03 -1.294761650694e-04) (1.355872839870e-04 5.393331367648e-04 -2.237011137941e-05))
0.97337             	((1.377824000151e-03 2.126885180001e-07 -8.091745629739e-03) (-1.003462720281e-03 2.453353014565e-04 -1.259123223835e-04)) ((-2.439083191137e-03 -1.171661678174e-02 -4.156234640663e-04) (1.276177887962e-04 5.153903372196e-04 -1.784444560074e-05))
0.98337             	((2.202503596639e-03 3.516617882044e-07 -1.306762434794e-02) (-9.882617260021e-04 2.384746517910e-04 -1.356381777819e-04)) ((-3.934784102161e-03 -1.888322450124e-02 -6.637026298414e-04) (1.190987627211e-04 4.879153360685e-04 -1.371130399823e-05))
0.99337             	((2.883176752688e-03 4.761782427128e-07 -1.731868556202e-02) (-9.664189271681e-04 2.331327257417e-04 -1.440326831578e-04)) ((-5.212382295998e-03 -2.499863291376e-02 -8.684333007365e-04) (1.120886610878e-04 4.579306869004e-04 -1.365673742848e-05))
1.00337             	((3.358451707835e-03 5.741643981658e-07 -2.046919852765e-02) (-9.385650886155e-04 2.289391080566e-04 -1.486246412153e-04)) ((-6.159057495677e-03 -2.951659176482e-02 -1.011365663057e-03) (1.070671631535e-04 4.292996155410e-04 -1.701334944892e-05))
1.01337             	((3.620353518388e-03 6.414597274392e-07 -2.243955475873e-02) (-9.080253489097e-04 2.241905883559e-04 -1.491872906591e-04)) ((-6.750885123592e-03 -3.232211282180e-02 -1.090098458108e-03) (1.029577913761e-04 4.046324850724e-04 -2.049186522361e-05))
1.02337             	((3.835995831511e-03 7.055980483620e-07 -2.423610217879e-02) (-8.772148830721e-04 2.176629905483e-04 -1.465851717818e-04)) ((-7.290458501741e-03 -3.488310180718e-02 -1.154920938382e-03) (9.869931127878e-05 3.843829151022e-04 -2.172268643590e-05))
1.03337             	((3.972039605906e-03 7.600453488426e-07 -2.564389804375e-02) (-8.469617503267e-04 2.089954607278e-04 -1.422297381318e-04)) ((-7.713128326631e-03 -3.688285935610e-02 -1.195796512380e-03) (9.364764834449e-05 3.671736366552e-04 -1.996055135323e-05))
1.04337             	((4.068219276744e-03 8.115704793294e-07 -2.690782584204e-02) (-8.162595614472e-04 1.981198971555e-04 -1.367835786966e-04)) ((-8.092589962438e-03 -3.868111940964e-02 -1.224692887937e-03) (8.757746398194e-05 3.514335716567e-04 -1.540648817033e-05))
1.05337             	((4.048267845572e-03 8.439541216523e-07 -2.750608681822e-02) (-7.841654220153e-04 1.856273986161e-04 -1.303272707556e-04)) ((-8.271950065078e-03 -3.951637527899e-02 -1.218654608995e-03) (8.086701224301e-05 3.364389831808e-04 -9.138478336735e-06))
1.06337             	((3.931084032729e-03 8.585801134718e-07 -2.751781479113e-02) (-7.517266402131e-04 1.718112473333e-04 -1.222758671326e-04)) ((-8.274985207659e-03 -3.950535963994e-02 -1.183363613144e-03) (7.388618713640e-05 3.236844342692e-04 -1.201147632491e-06))
1.07337             	((3.760633018399e-03 8.628216036473e-07 -2.720510093295e-02) (-7.201448099478e-04 1.575012875387e-04 -1.136489997310e-04)) ((-8.180478393764e-03 -3.903514669817e-02 -1.132047170039e-03) (6.686294777868e-05 3.125520583167e-04 7.693969275827e-06))