# Forces            
# CofR              : (1.500000000000e+00 0.000000000000e+00 5.000000000000e-01)
# Time              forces(pressure viscous)	moments(pressure viscous)
0                   	((0.000000000000e+00 0.000000000000e+00 0.000000000000e+00) (-1.980048937404e-01 -8.783809505314e-19 3.853122118670e-17)) ((0.000000000000e+00 0.000000000000e+00 0.000000000000e+00) (2.070599408137e-18 -5.337702166596e-03 -3.932984737730e-06))
0.00667             	((-1.277298930838e+03 -8.918579988804e-05 1.231122566685e-02) (-6.565921575766e-02 -3.167433500351e-06 8.467346280042e-04)) ((2.704787035996e-06 -3.873211930134e+01 3.789426990974e-05) (-1.287284907495e-05 -8.442092007825e-04 4.405554291076e-06))
0.01334             	((6.527278090104e+02 1.009486047042e-04 -5.927174061923e-02) (-2.061584359174e-02 1.035884181343e-05 2.429972322091e-03)) ((-2.588902030375e-06 1.692452558957e+01 3.148027764261e-04) (-2.034395402184e-05 2.762901321857e-03 -1.675987473154e-05))
0.02001             	((-8.612421054970e+01 -1.457579910809e-05 2.786784940978e-02) (-1.542969252088e-02 -1.036145814797e-05 3.036667059487e-03)) ((6.255518887810e-07 -4.475113158735e+00 -4.073937268874e-04) (-1.255269996649e-05 3.790963030420e-03 1.475163800028e-05))
0.02668             	((-4.815389451088e+01 -1.051417091054e-05 3.447817616631e-02) (-1.617345162569e-02 6.459796911663e-06 3.800179521762e-03)) ((5.745698967140e-07 -2.755312224975e+00 -3.776432344307e-05) (-3.858292298010e-06 4.897751110247e-03 -1.130393077320e-05))
0.03335             	((4.822252859675e+01 1.392306779443e-05 -6.040014175309e-02) (-1.321146014157e-02 1.238867271510e-06 4.813807488559e-03)) ((-8.105959057349e-08 4.009661500024e-02 -5.547387975506e-05) (8.271042916761e-08 6.527709635895e-03 -3.882128969037e-06))
0.04002             	((-7.936569415173e+00 -2.749259635409e-06 1.539742847668e-02) (-1.206286903223e-02 -1.473967721753e-05 5.736846502352e-03)) ((3.821537878342e-07 -1.530892465605e+00 -7.636539485394e-05) (-2.473504318957e-07 7.938622613467e-03 2.001160241962e-05))
0.04669             	((-7.741741631047e-02 -3.146373342127e-08 2.149471380341e-04) (-1.093413861165e-02 -1.932149228930e-05 6.678559445491e-03)) ((2.590989672994e-07 -1.200072723698e+00 -8.234561058159e-05) (-3.723448727156e-06 9.370001778677e-03 2.678220172292e-05))
0.05336             	((5.163529710442e+00 2.378405172316e-06 -1.940467927611e-02) (-9.522055524598e-03 -8.413743411917e-06 7.605430448391e-03)) ((1.702227930667e-07 -9.932792386495e-01 -7.644908832396e-05) (-7.660438210560e-06 1.079293418227e-02 1.026855505039e-05))
0.06003             	((8.217993392601e-01 4.202587215285e-07 -4.013477663053e-03) (-8.370242854356e-03 1.937260848791e-05 8.461430397272e-03)) ((2.273666293725e-07 -1.026442909340e+00 -6.092518438358e-05) (-1.356703695289e-05 1.210922166286e-02 -3.174407076125e-05))
0.0667              	((1.610785156758e+00 8.858568993584e-07 -9.907383661820e-03) (-7.365263923826e-03 5.160032763036e-05 9.288928961737e-03)) ((6.116663622534e-08 -9.312532141637e-01 -7.332216252902e-05) (-1.943390699496e-05 1.338673290247e-02 -8.053303414508e-05))
0.07337             	((1.632759435892e+00 9.575938626719e-07 -1.233769870086e-02) (-6.522976371816e-03 8.282501428007e-05 1.006450591717e-02)) ((3.167097471114e-08 -8.501680869926e-01 -6.179472316439e-05) (-2.510437873831e-05 1.458562003882e-02 -1.278734298593e-04))
0.08337             	((1.163203091310e+00 7.163665142344e-07 -1.153427922386e-02) (-5.571140649643e-03 1.150534936553e-04 1.097537942726e-02)) ((-2.564465981913e-07 -7.660299589618e-01 -7.343828637953e-05) (-3.141138675004e-05 1.599975335793e-02 -1.767128711679e-04))
0.09337             	((8.901078068688e-01 5.606552118636e-07 -1.118800959543e-02) (-4.811821676319e-03 1.312720014580e-04 1.203961666767e-02)) ((-3.036320520812e-07 -6.228049650958e-01 -5.536678479920e-05) (-3.399368512350e-05 1.765324970850e-02 -2.012098827588e-04))
0.10337             	((4.849530697919e-01 3.067456153968e-07 -7.519307934635e-03) (-4.245887391670e-03 1.403384819914e-04 1.303915001787e-02)) ((-6.461320821861e-07 -4.979547754913e-01 -6.198564986276e-05) (-3.428706451787e-05 1.921421263427e-02 -2.148838075270e-04))
0.11337             	((1.210736537101e-01 7.449855281598e-08 -2.265328513866e-03) (-3.863314195850e-03 1.474322145953e-04 1.401531453936e-02)) ((-1.565825643906e-06 -3.819520349026e-01 -9.624878282484e-05) (-3.339631186740e-05 2.074177811689e-02 -2.256731242865e-04))
0.12337             	((-1.949641167923e-01 -1.150941377687e-07 4.322324973273e-03) (-3.617203458740e-03 1.528525600202e-04 1.495367405908e-02)) ((-2.675441879332e-06 -2.490132752933e-01 -1.273099847494e-04) (-3.177451485271e-05 2.221534845485e-02 -2.340276078857e-04))
0.13337             	((-5.078559703802e-01 -2.787270696077e-07 1.313660264251e-02) (-3.450850727876e-03 1.536345420656e-04 1.587034713442e-02)) ((-4.416901998355e-06 -1.150671784262e-01 -1.731971687351e-04) (-2.952696246211e-05 2.366168806976e-02 -2.353687055441e-04))
0.14337             	((-7.830380847199e-01 -3.900679754393e-07 2.332108303446e-02) (-3.327951026731e-03 1.499497995383e-04 1.676145779357e-02)) ((-6.793905557832e-06 2.655668144237e-02 -2.276707250257e-04) (-2.734083219123e-05 2.507738871551e-02 -2.299027167414e-04))
0.15337             	((-1.020300726390e+00 -4.466005357700e-07 3.458627109903e-02) (-3.222503907053e-03 1.406439055276e-04 1.762955693475e-02)) ((-9.776386316176e-06 1.741421113404e-01 -2.861563789532e-04) (-2.531309093371e-05 2.646836525916e-02 -2.158357898338e-04))
0.16337             	((-1.214796386780e+00 -4.466710242129e-07 4.639434798718e-02) (-3.117499190748e-03 1.244492313868e-04 1.848422742020e-02)) ((-1.343555790473e-05 3.255932211077e-01 -3.486638964067e-04) (-2.232681941708e-05 2.785004847437e-02 -1.912205714981e-04))
0.17337             	((-1.358438481760e+00 -3.977378976364e-07 5.792195443865e-02) (-3.002147265473e-03 1.009315905605e-04 1.932523334840e-02)) ((-1.773097149556e-05 4.809467703923e-01 -4.125403480485e-04) (-1.774125656306e-05 2.922070781491e-02 -1.553975079349e-04))
0.18337             	((-1.448422153944e+00 -3.046730845233e-07 6.838884418316e-02) (-2.869863362347e-03 7.172857686372e-05 2.016552049058e-02)) ((-2.271370210970e-05 6.362407448783e-01 -4.782239603307e-04) (-1.171174184188e-05 3.059807114998e-02 -1.108638149616e-04))
0.19337             	((-1.480711284698e+00 -1.848101407904e-07 7.684480864811e-02) (-2.715837383485e-03 3.777168088759e-05 2.101367992607e-02)) ((-2.838230759571e-05 7.910750080487e-01 -5.449919806131e-04) (-4.550201573516e-06 3.199363811183e-02 -5.902352404398e-05))
0.20337             	((-1.456341468697e+00 -5.282096705076e-08 8.250789758427e-02) (-2.537033797498e-03 -2.400523624353e-06 2.188183796720e-02)) ((-3.443369631852e-05 9.410979755344e-01 -6.071844228066e-04) (4.135441845394e-06 3.342420294655e-02 2.355192458925e-06))
0.21337             	((-1.370550417557e+00 7.398401823429e-08 8.423104841273e-02) (-2.318109659947e-03 -5.342083883502e-05 2.277990428782e-02)) ((-4.028656407496e-05 1.084094307036e+00 -6.564678217758e-04) (1.598792162046e-05 3.490798086330e-02 8.048032351168e-05))
0.22337             	((-1.221260814451e+00 1.756206070974e-07 8.094200625059e-02) (-2.064714276271e-03 -1.091798059965e-04 2.371850382681e-02)) ((-4.680443573074e-05 1.218824789831e+00 -7.088343459628e-04) (2.910921521211e-05 3.645684642245e-02 1.658335676884e-04))
0.23337             	((-1.007350800254e+00 2.349237630759e-07 7.160355394394e-02) (-1.775697383987e-03 -1.528815379053e-04 2.469686689243e-02)) ((-5.139175957001e-05 1.341587645726e+00 -7.274038520780e-04) (3.787450990304e-05 3.806868116400e-02 2.328724841493e-04))
0.24337             	((-7.374690569933e-01 2.364429074459e-07 5.592647886811e-02) (-1.455794523523e-03 -1.883185213502e-04 2.572365802748e-02)) ((-5.552482911248e-05 1.449982797040e+00 -7.383028999089e-04) (4.375740221768e-05 3.975460227052e-02 2.872834915281e-04))
0.25337             	((-4.138511420298e-01 1.683473326613e-07 3.331803848936e-02) (-1.103557912147e-03 -2.217055771497e-04 2.680947037187e-02)) ((-5.974601971282e-05 1.542369541092e+00 -7.499124630506e-04) (4.905016281827e-05 4.153097535631e-02 3.385182831659e-04))
0.26337             	((-3.959244911508e-02 1.947022565275e-08 3.367774676092e-03) (-7.173322054064e-04 -2.550607609540e-04 2.796269138449e-02)) ((-6.405025523863e-05 1.614757570318e+00 -7.623271846173e-04) (5.431555372112e-05 4.341115416529e-02 3.897052787072e-04))
0.27337             	((3.770299224340e-01 -2.171192221156e-07 -3.372966081889e-02) (-2.993241596721e-04 -2.877663692081e-04 2.919284602754e-02)) ((-6.825656174398e-05 1.667743778647e+00 -7.737067244056e-04) (5.901614918776e-05 4.540917225174e-02 4.399443855004e-04))
0.28337             	((8.249188893343e-01 -5.444929187965e-07 -7.727259185064e-02) (1.477620279687e-04 -3.190466253118e-04 3.050982714607e-02)) ((-7.225013126217e-05 1.699756656207e+00 -7.832790646909e-04) (6.248018895236e-05 4.753941024079e-02 4.881110439626e-04))
0.29337             	((1.294874262006e+00 -9.646836774012e-07 -1.264569685976e-01) (6.225468551207e-04 -3.490673107575e-04 3.192186348403e-02)) ((-7.590611471501e-05 1.712870697890e+00 -7.903182699614e-04) (6.451341941279e-05 4.981410797302e-02 5.344963975380e-04))
0.30337             	((1.781168950930e+00 -1.482276718340e-06 -1.805856919945e-01) (1.124836482520e-03 -3.790494539183e-04 3.343964756540e-02)) ((-7.937992447570e-05 1.706207794727e+00 -7.969520025160e-04) (6.554481411014e-05 5.225034625127e-02 5.809766161122e-04))
0.31337             	((2.269388259813e+00 -2.094682673481e-06 -2.378709562605e-01) (1.654729066044e-03 -4.103484857609e-04 3.507004373855e-02)) ((-8.321986395517e-05 1.683767780807e+00 -8.087794509614e-04) (6.573311786534e-05 5.485985104236e-02 6.296665243540e-04))
0.32337             	((2.749554434801e+00 -2.801440012423e-06 -2.967293959816e-01) (2.211995753735e-03 -4.442087809000e-04 3.681735591038e-02)) ((-8.757004562933e-05 1.644718636315e+00 -8.269695931604e-04) (6.542246951781e-05 5.765096903687e-02 6.824810857926e-04))
0.33337             	((3.206804207028e+00 -3.592281058956e-06 -3.548613289041e-01) (2.796430048166e-03 -4.804928913171e-04 3.867979336773e-02)) ((-9.160069272038e-05 1.594344586554e+00 -8.439150626148e-04) (6.469318445462e-05 6.062260370605e-02 7.392251139172e-04))
0.34337             	((3.632779295014e+00 -4.458920876344e-06 -4.105236568064e-01) (3.404396447173e-03 -5.178351826540e-04 4.064029965758e-02)) ((-9.580444753524e-05 1.535837198745e+00 -8.644680616950e-04) (6.372828590625e-05 6.374972874873e-02 7.978059512365e-04))
0.35337             	((4.015573745294e+00 -5.385608567121e-06 -4.615076504469e-01) (4.029925463213e-03 -5.555424132055e-04 4.267744136723e-02)) ((-1.000587958606e-04 1.474065424420e+00 -8.878123961303e-04) (6.265884423187e-05 6.700033464962e-02 8.571762515364e-04))
0.36337             	((4.344595683370e+00 -6.345591604383e-06 -5.057287768123e-01) (4.665978455887e-03 -5.925046192026e-04 4.476651996693e-02)) ((-1.038037742245e-04 1.411937142426e+00 -9.094697136693e-04) (6.154498835300e-05 7.033648950620e-02 9.156152246165e-04))
0.37337             	((4.615519584451e+00 -7.312414464544e-06 -5.418856532455e-01) (5.306253060004e-03 -6.283776038061e-04 4.687373734170e-02)) ((-1.071106285940e-04 1.352853922952e+00 -9.305723993659e-04) (6.011886598289e-05 7.370747788035e-02 9.726467958025e-04))
0.38337             	((4.819896655150e+00 -8.249237749160e-06 -5.683197852274e-01) (5.937086112110e-03 -6.621614717301e-04 4.896682264270e-02)) ((-1.103628124246e-04 1.302679797181e+00 -9.548910311971e-04) (5.791080945865e-05 7.706329581188e-02 1.026756672240e-03))
0.39337             	((4.954102239779e+00 -9.118750560741e-06 -5.841097739175e-01) (6.531305111262e-03 -6.819482457365e-04 5.100320846903e-02)) ((-1.113115729506e-04 1.260647142141e+00 -9.637648003632e-04) (5.589611661849e-05 8.033893822577e-02 1.059094383915e-03))
0.40337             	((5.012945382931e+00 -9.875036053429e-06 -5.883681310858e-01) (7.075834503047e-03 -6.853313944640e-04 5.294163800859e-02)) ((-1.091418942647e-04 1.232138003878e+00 -9.505779333536e-04) (5.436853599542e-05 8.347019804849e-02 1.065859622166e-03))
0.41337             	((4.995583216656e+00 -1.047737876710e-05 -5.809701597183e-01) (7.559308226020e-03 -6.763927043694e-04 5.473947435623e-02)) ((-1.052372118237e-04 1.218386682789e+00 -9.268750534840e-04) (5.289387480406e-05 8.639157034995e-02 1.053391715168e-03))
0.42337             	((4.901622063886e+00 -1.088595687960e-05 -5.621095495728e-01) (7.970790120217e-03 -6.574986403132e-04 5.635512782458e-02)) ((-9.907092113272e-05 1.221409725943e+00 -8.875572863832e-04) (5.091346826018e-05 8.903932060852e-02 1.025421177715e-03))
0.43337             	((4.729481804106e+00 -1.105897064508e-05 -5.321196025113e-01) (8.296951717568e-03 -6.325429870583e-04 5.774057514612e-02)) ((-9.105597271712e-05 1.241561889729e+00 -8.351091755738e-04) (4.853473478994e-05 9.133843368132e-02 9.880125219090e-04))
0.44337             	((4.481821583363e+00 -1.097131461916e-05 -4.920879848412e-01) (8.521636925111e-03 -6.011006307357e-04 5.884916929252e-02)) ((-8.323120918903e-05 1.278917510342e+00 -7.865642893177e-04) (4.590381093584e-05 9.321460273268e-02 9.404432283127e-04))
0.45337             	((4.162633567165e+00 -1.061092432429e-05 -4.434825088479e-01) (8.628616772901e-03 -5.631618844267e-04 5.962903693797e-02)) ((-7.511419134120e-05 1.332523713340e+00 -7.369223271719e-04) (4.292442670630e-05 9.458431838545e-02 8.826509492384e-04))
0.46337             	((3.774109115386e+00 -9.966535241793e-06 -3.877806080741e-01) (8.606438121331e-03 -5.145714869132e-04 6.003966134486e-02)) ((-6.605129974437e-05 1.401565280306e+00 -6.788724259985e-04) (3.810807091687e-05 9.538115169925e-02 8.081643365738e-04))
0.47337             	((3.319909804069e+00 -9.037695693694e-06 -3.267958567421e-01) (8.445704284065e-03 -4.489497591626e-04 6.004810842837e-02)) ((-5.635567372436e-05 1.484622349681e+00 -6.135736256929e-04) (3.014175985985e-05 9.555017849742e-02 7.069268325557e-04))
0.48337             	((2.813503293967e+00 -7.860913164817e-06 -2.633947683366e-01) (8.143427118464e-03 -3.694492464148e-04 5.962885419034e-02)) ((-4.619279875698e-05 1.575841421503e+00 -5.404478794015e-04) (2.040344411824e-05 9.504876987316e-02 5.835178320855e-04))
0.49337             	((2.259958489289e+00 -6.456993276433e-06 -1.995910213273e-01) (7.707027028523e-03 -2.861029257975e-04 5.877307116196e-02)) ((-3.614687376832e-05 1.673265822289e+00 -4.634211486043e-04) (1.204750862471e-05 9.385959229009e-02 4.532721217852e-04))
0.50337             	((1.660148581772e+00 -4.836324710383e-06 -1.370498092765e-01) (7.148918010488e-03 -2.118365128509e-04 5.747928590865e-02)) ((-2.790319520416e-05 1.774847072104e+00 -4.006367243217e-04) (8.175039327132e-06 9.197745379403e-02 3.363721554027e-04))
0.51337             	((1.034334638432e+00 -3.066301709278e-06 -7.897516267964e-02) (6.487062692382e-03 -1.574733944221e-04 5.575453615954e-02)) ((-2.162493144482e-05 1.872347021118e+00 -3.559169177653e-04) (1.011439569864e-05 8.941223743190e-02 2.501375808713e-04))
0.52337             	((3.937207126262e-01 -1.185531480570e-06 -2.746097612797e-02) (5.747609378784e-03 -1.250513873322e-04 5.361466142421e-02)) ((-1.678221086720e-05 1.963223639947e+00 -3.253696218207e-04) (1.660343783294e-05 8.618465062681e-02 1.982316290974e-04))
0.53337             	((-2.599420099821e-01 7.931186737827e-07 1.631520551230e-02) (4.958732187892e-03 -1.068934998188e-04 5.108502849882e-02)) ((-1.305705338662e-05 2.049505463516e+00 -3.076625533369e-04) (2.683628316374e-05 8.232827393202e-02 1.687678045165e-04))
0.54337             	((-9.062748526912e-01 2.797122299759e-06 5.024255935019e-02) (4.139522569070e-03 -9.721053347026e-05 4.818577991193e-02)) ((-1.018082583286e-05 2.121704548623e+00 -3.017619675521e-04) (3.959868948631e-05 7.786983733195e-02 1.528012636480e-04))
0.55337             	((-1.467725281671e+00 4.572479938224e-06 7.016132949951e-02) (3.342560356063e-03 -9.488052971584e-05 4.494117019280e-02)) ((-7.598826358251e-06 2.148486868498e+00 -2.989809747131e-04) (5.166020874700e-05 7.282275259797e-02 1.489190798574e-04))
0.56337             	((-2.151532995685e+00 6.742539474448e-06 8.583074179016e-02) (2.555148656956e-03 -9.440985863068e-05 4.137474696450e-02)) ((-4.775729439414e-06 2.210551573331e+00 -2.933665747450e-04) (6.152974467787e-05 6.723042484627e-02 1.482452801944e-04))
0.57337             	((-2.719559923997e+00 8.556094269191e-06 8.633257776654e-02) (1.782049393997e-03 -9.787792405652e-05 3.751628275008e-02)) ((-3.087482191169e-06 2.224262043474e+00 -3.176968564694e-04) (6.823872426640e-05 6.114253360619e-02 1.542241840398e-04))
0.58337             	((-3.249312243704e+00 1.027016150263e-05 7.602204596430e-02) (1.050819676595e-03 -1.054950637905e-04 3.339785117767e-02)) ((-9.623082774675e-07 2.211257922475e+00 -3.398595201392e-04) (7.156702878931e-05 5.460388124689e-02 1.672436252367e-04))
0.59337             	((-3.742905179891e+00 1.193068401425e-05 5.570913068669e-02) (3.847826345154e-04 -1.134317719417e-04 2.905619105500e-02)) ((1.705038128134e-06 2.175647912155e+00 -3.513817480752e-04) (7.356268897263e-05 4.766984904657e-02 1.810351460983e-04))
0.60337             	((-4.185693184604e+00 1.354132098759e-05 2.613979187480e-02) (-1.933707748859e-04 -1.202188711465e-04 2.456296036066e-02)) ((4.502612414202e-06 2.111436285086e+00 -3.728064258400e-04) (7.479066111225e-05 4.045648161466e-02 1.930940602766e-04))
0.61337             	((-4.576591432667e+00 1.512630513257e-05 -1.136508235961e-02) (-6.778045508985e-04 -1.267963942574e-04 2.002513515181e-02)) ((7.640039842168e-06 2.020928510855e+00 -3.868128230763e-04) (7.558027393320e-05 3.313678938874e-02 2.048684631980e-04))
0.62337             	((-4.896191374928e+00 1.662996524721e-05 -5.515315687416e-02) (-1.081351711791e-03 -1.355697514519e-04 1.552438542875e-02)) ((1.080889462711e-05 1.901229164641e+00 -3.862887082962e-04) (7.599190626507e-05 2.584423795952e-02 2.203177986182e-04))
0.63337             	((-5.156423622002e+00 1.808676378875e-05 -1.034514561698e-01) (-1.417255719616e-03 -1.450756275159e-04 1.110214200647e-02)) ((1.359246598952e-05 1.756562635216e+00 -3.703957458553e-04) (7.487639030893e-05 1.864407065273e-02 2.370495755352e-04))
0.64337             	((-5.366258589003e+00 1.952513119681e-05 -1.547772940699e-01) (-1.688994404936e-03 -1.548546761817e-04 6.780928213331e-03)) ((1.561115602892e-05 1.588497315333e+00 -3.408631865638e-04) (7.243378443499e-05 1.157381759519e-02 2.542736042486e-04))
0.65337             	((-5.533375769734e+00 2.096272537137e-05 -2.078926016306e-01) (-1.884795596670e-03 -1.654285961751e-04 2.586814913272e-03)) ((1.650595590841e-05 1.402450179544e+00 -2.979157414202e-04) (6.899730728605e-05 4.679491668941e-03 2.728146847917e-04))
0.66337             	((-5.630175443945e+00 2.226225278893e-05 -2.601919667317e-01) (-2.006969091690e-03 -1.749801460600e-04 -1.491941537958e-03)) ((1.592488333977e-05 1.195492245421e+00 -2.423039319067e-04) (6.441493922914e-05 -2.056195672941e-03 2.897046201339e-04))
0.67337             	((-5.700594470059e+00 2.356460011255e-05 -3.120550354822e-01) (-2.035220334671e-03 -1.821988089037e-04 -5.468790013808e-03)) ((1.299943580422e-05 9.826369479246e-01 -1.632694857494e-04) (5.938845187993e-05 -8.645703374840e-03 3.027321860289e-04))
0.68337             	((-5.719952698673e+00 2.474387569235e-05 -3.610528061478e-01) (-1.969689757434e-03 -1.906265255215e-04 -9.391171691851e-03)) ((7.560005895847e-06 7.651292747523e-01 -6.733256769416e-05) (5.537833685118e-05 -1.516431986890e-02 3.177691996068e-04))
0.69337             	((-5.699486007417e+00 2.582557353496e-05 -4.065335964697e-01) (-1.821559909568e-03 -2.032466373723e-04 -1.335821525412e-02)) ((-1.560527885147e-06 5.478796592826e-01 5.668292466184e-05) (5.294846333577e-05 -2.177773642747e-02 3.398824942664e-04))
0.70337             	((-5.608193130078e+00 2.664758903392e-05 -4.449185043913e-01) (-1.552032823757e-03 -2.146588160094e-04 -1.746552682175e-02)) ((-1.425220487324e-05 3.192056853978e-01 1.987671415028e-04) (5.219407383173e-05 -2.864236944779e-02 3.601783632675e-04))
0.71337             	((-5.459503885999e+00 2.723350351414e-05 -4.755967331996e-01) (-1.141015058028e-03 -2.299006690287e-04 -2.180744766985e-02)) ((-2.734919744339e-05 8.897763240394e-02 3.190438700044e-04) (5.426239727921e-05 -3.592010901396e-02 3.871476438941e-04))
0.72337             	((-5.258724162709e+00 2.757805710755e-05 -4.977112930051e-01) (-6.062739458605e-04 -2.369912294758e-04 -2.646614006130e-02)) ((-4.650128102964e-05 -1.391020479980e-01 4.836162032897e-04) (6.024452143568e-05 -4.375721466589e-02 4.008456614814e-04))
0.73337             	((-5.025607221148e+00 2.775491746271e-05 -5.121428126379e-01) (3.072705591815e-05 -2.299588919951e-04 -3.144843847298e-02)) ((-6.660497867995e-05 -3.513508219302e-01 6.345471236995e-04) (7.038381213970e-05 -5.216989243904e-02 3.913321078655e-04))
0.74337             	((-4.760453446505e+00 2.774189035766e-05 -5.183170552452e-01) (7.820326970626e-04 -2.124600081945e-04 -3.667597167500e-02)) ((-8.305549347126e-05 -5.513263525903e-01 7.333097975463e-04) (8.155171433024e-05 -6.102306436966e-02 3.642591013420e-04))
0.75337             	((-4.469857330775e+00 2.754860221905e-05 -5.164786900173e-01) (1.654985048132e-03 -1.839657687573e-04 -4.205161319579e-02)) ((-9.451025146977e-05 -7.433412262744e-01 7.782883133413e-04) (9.111439691102e-05 -7.015356677583e-02 3.184226762125e-04))
0.76337             	((-4.197675748735e+00 2.742120738131e-05 -5.116679881180e-01) (2.636129093567e-03 -1.317031592525e-04 -4.751077317271e-02)) ((-1.101870899459e-04 -9.188216709254e-01 8.547231520800e-04) (1.049869830365e-04 -7.945627624267e-02 2.329728711592e-04))
0.77337             	((-3.878502661540e+00 2.691351680309e-05 -4.960792922423e-01) (3.696615319872e-03 -5.294631135746e-05 -5.299986146121e-02)) ((-1.260393767276e-04 -1.087376800842e+00 9.264223107030e-04) (1.257554935114e-04 -8.883708401699e-02 1.036195213622e-04))
0.78337             	((-3.539060066130e+00 2.614921280485e-05 -4.727140907429e-01) (4.803384641981e-03 4.700000842340e-05 -5.846912290631e-02)) ((-1.422586944704e-04 -1.235214302627e+00 9.967170265095e-04) (1.528511519431e-04 -9.821029928638e-02 -6.074968661668e-05))
0.79337             	((-3.124874349587e+00 2.464937780411e-05 -4.339838925567e-01) (5.914938132041e-03 1.531790009779e-04 -6.388721435104e-02)) ((-1.542847668337e-04 -1.373419337035e+00 1.032910635370e-03) (1.829086102978e-04 -1.075188098476e-01 -2.353062867700e-04))
0.80337             	((-2.681994201756e+00 2.265431225553e-05 -3.857418768400e-01) (7.002224478429e-03 2.486935312016e-04 -6.921030122405e-02)) ((-1.628756912500e-04 -1.492378005627e+00 1.044799349788e-03) (2.096729007591e-04 -1.166736708150e-01 -3.923609815961e-04))
0.81337             	((-2.181267498478e+00 1.979143005981e-05 -3.237050071126e-01) (8.042524442317e-03 3.162575252428e-04 -7.438334436708e-02)) ((-1.600775899336e-04 -1.595087787613e+00 9.811494067275e-04) (2.303648288888e-04 -1.255582604431e-01 -5.030556040621e-04))
0.82337             	((-1.642985112252e+00 1.605909343239e-05 -2.507237663688e-01) (9.019157662276e-03 3.582463876757e-04 -7.936246869626e-02)) ((-1.640445119348e-04 -1.687084825306e+00 9.669192571785e-04) (2.468965555137e-04 -1.340707665156e-01 -5.712183979549e-04))
0.83337             	((-1.038384641771e+00 1.096030056786e-05 -1.624280640795e-01) (9.882692573271e-03 3.881945627151e-04 -8.406012579041e-02)) ((-1.624319648423e-04 -1.767075268009e+00 9.191710947761e-04) (2.563623438772e-04 -1.420361864528e-01 -6.198717728299e-04))
0.84337             	((-3.746767401235e-01 4.277958443388e-06 -5.989709976233e-02) (1.063167480638e-02 4.218628103676e-04 -8.837289829538e-02)) ((-1.664340255819e-04 -1.839892579357e+00 9.096930284960e-04) (2.567390879682e-04 -1.492967574782e-01 -6.758314816915e-04))
0.85337             	((3.361541777222e-01 -4.155301953986e-06 5.476624616698e-02) (1.134612676671e-02 4.661352165198e-04 -9.221709909431e-02)) ((-1.670081408996e-04 -1.898546916911e+00 8.810435625645e-04) (2.427900090277e-04 -1.557480295208e-01 -7.516542146716e-04))
0.86337             	((1.092088080457e+00 -1.461309823632e-05 1.808423845429e-01) (1.207489635537e-02 5.158632450218e-04 -9.549483632357e-02)) ((-1.943087271536e-04 -1.931829497499e+00 1.017307038710e-03) (2.235908946968e-04 -1.612513084534e-01 -8.376962519699e-04))
0.87337             	((1.885373113933e+00 -2.728100969531e-05 3.165229917575e-01) (1.284108674536e-02 5.660887111171e-04 -9.815811764254e-02)) ((-2.208897265082e-04 -1.932839943727e+00 1.149141565640e-03) (2.091300119786e-04 -1.657503877615e-01 -9.244300749177e-04))
0.88337             	((2.689141072905e+00 -4.200414607382e-05 4.565947576261e-01) (1.367836505222e-02 6.049885263029e-04 -1.002239503923e-01)) ((-2.274593122815e-04 -1.895388055103e+00 1.165269669646e-03) (1.944499996608e-04 -1.692857064120e-01 -9.924307235628e-04))
0.89337             	((3.445725593796e+00 -5.795848628753e-05 5.903247248648e-01) (1.463243482377e-02 6.495660362536e-04 -1.017578894210e-01)) ((-2.468797818230e-04 -1.845522475108e+00 1.259842697519e-03) (1.804213486517e-04 -1.720045663051e-01 -1.070330217117e-03))
0.90337             	((4.132966278524e+00 -7.465504289462e-05 7.128231346585e-01) (1.560150560722e-02 7.076343929733e-04 -1.028831188245e-01)) ((-2.783509397037e-04 -1.789408323059e+00 1.426478242442e-03) (1.756159630364e-04 -1.740691760236e-01 -1.170083675779e-03))
0.91337             	((4.732993322399e+00 -9.155781289842e-05 8.199914025443e-01) (1.643709580910e-02 7.881123331134e-04 -1.036113036069e-01)) ((-3.203622061282e-04 -1.730066289989e+00 1.655957724039e-03) (1.827254478510e-04 -1.754498954167e-01 -1.305813226879e-03))
0.92337             	((5.266407103320e+00 -1.088308446608e-04 9.145483902305e-01) (1.702290623740e-02 8.481252921690e-04 -1.038766046864e-01)) ((-3.565094666188e-04 -1.670753701723e+00 1.854133109789e-03) (2.026245562407e-04 -1.760249499699e-01 -1.404474104403e-03))
0.93337             	((5.747925330894e+00 -1.266295331143e-04 9.983981798239e-01) (1.732976696609e-02 8.504283487044e-04 -1.035235572254e-01)) ((-3.901431556539e-04 -1.605510207369e+00 2.042480405412e-03) (2.316698596898e-04 -1.755272766814e-01 -1.403137633244e-03))
0.94337             	((6.215846651035e+00 -1.457440568915e-04 1.077670215252e+00) (1.740377214852e-02 7.765709079647e-04 -1.023646848423e-01)) ((-4.007743243544e-04 -1.530250390340e+00 2.104657630699e-03) (2.569948871241e-04 -1.736458057626e-01 -1.273162839039e-03))
0.95337             	((6.642831260417e+00 -1.655523127849e-04 1.147176044851e+00) (1.733962457953e-02 6.817730733666e-04 -1.004492571007e-01)) ((-3.957621714007e-04 -1.447699173409e+00 2.082776560939e-03) (2.770773376813e-04 -1.704718049308e-01 -1.108984560707e-03))
0.96337             	((7.006550272470e+00 -1.854053579119e-04 1.202738746528e+00) (1.720234536162e-02 6.327927366746e-04 -9.800262735548e-02)) ((-3.787610362908e-04 -1.367561387487e+00 1.995657860382e-03) (2.913679331490e-04 -1.663942978930e-01 -1.024222574514e-03))
0.97337             	((7.284013692181e+00 -2.044656509209e-04 1.240287238164e+00) (1.699900772526e-02 6.404750603831e-04 -9.525669765089e-02)) ((-3.457140799393e-04 -1.294531671809e+00 1.816916889560e-03) (2.970540113715e-04 -1.618219885800e-01 -1.037559139917e-03))
0.98337             	((7.479673939302e+00 -2.225171045300e-04 1.260673572802e+00) (1.670743780456e-02 6.903463274082e-04 -9.238276921349e-02)) ((-3.135421528543e-04 -1.234513126021e+00 1.642370259769e-03) (2.940796545194e-04 -1.570419543090e-01 -1.123559114326e-03))
0.99337             	((7.568165167958e+00 -2.383819619704e-04 1.259931516230e+00) (1.633946827782e-02 7.588739397148e-04 -8.945791767169e-02)) ((-2.842738005559e-04 -1.186239678996e+00 1.483138495539e-03) (2.836648854748e-04 -1.522026015758e-01 -1.241897047021e-03))
1.00337             	((7.547140563800e+00 -2.514228183791e-04 1.238285267358e+00) (1.591993831106e-02 8.087820704012e-04 -8.650431893251e-02)) ((-2.407249835328e-04 -1.155762534843e+00 1.232511000708e-03) (2.721381581395e-04 -1.473507185162e-01 -1.328517014553e-03))
1.01337             	((7.483614660212e+00 -2.634016588290e-04 1.207391625534e+00) (1.547018004255e-02 8.165274186435e-04 -8.352509170344e-02)) ((-1.769817141478e-04 -1.116164465589e+00 8.534624201580e-04) (2.616656197484e-04 -1.424606984824e-01 -1.343571097712e-03))
1.02337             	((7.371126433975e+00 -2.738279439636e-04 1.166673166851e+00) (1.505202261895e-02 7.921447919002e-04 -8.052895080470e-02)) ((-1.181841737318e-04 -1.052339678412e+00 4.997033386257e-04) (2.491945407550e-04 -1.375020874939e-01 -1.304858101685e-03))
1.03337             	((7.190000315953e+00 -2.816108131043e-04 1.113674908499e+00) (1.465282838435e-02 7.572472527346e-04 -7.752093512981e-02)) ((-8.229518323292e-05 -9.875655330238e-01 2.815842022562e-04) (2.371635406695e-04 -1.324776738794e-01 -1.248209950991e-03))
1.04337             	((6.881313211945e+00 -2.838417909661e-04 1.040392151790e+00) (1.418694143495e-02 7.246630057071e-04 -7.451589668952e-02)) ((-5.757336301479e-05 -9.400314512249e-01 1.243378591924e-04) (2.244183255510e-04 -1.274341424157e-01 -1.195551840865e-03))
1.05337             	((6.475497369502e+00 -2.809584679070e-04 9.530453285186e-01) (1.362155288753e-02 7.060740280125e-04 -7.153169109226e-02)) ((-4.150046252889e-05 -9.084513449968e-01 1.416410895120e-05) (2.137354749171e-04 -1.224127655110e-01 -1.166345662898e-03))
1.06337             	((6.022281359854e+00 -2.744984922188e-04 8.603188166773e-01) (1.297972404026e-02 7.017954532711e-04 -6.857390771820e-02)) ((-3.452815908377e-05 -8.788140262210e-01 -3.870057897218e-05) (2.085553584354e-04 -1.174206714892e-01 -1.160747512349e-03))