# Forces            
# CofR              : (1.500000000000e+00 0.000000000000e+00 5.000000000000e-01)
# Time              forces(pressure viscous)	moments(pressure viscous)
0                   	((0.000000000000e+00 0.000000000000e+00 0.000000000000e+00) (-3.601274694538e+01 -4.712230316982e-04 -2.962715215298e-02)) ((0.000000000000e+00 0.000000000000e+00 0.000000000000e+00) (1.116832947538e-04 -2.607449223814e+00 6.725031571173e-04))
0.00667             	((-4.411175216979e+04 2.965750450196e+00 4.586207301597e+03) (-3.895687209184e+01 -2.768127385888e-03 3.276913249094e-01)) ((4.870905255211e-02 4.717714811805e+01 -5.476945036598e-01) (5.192564535580e-04 -2.807140028766e+00 -3.147178260291e-03))
0.01334             	((2.214062531408e+04 -5.733285065137e+00 1.856626667012e+03) (-2.920617889884e+01 -4.550667079944e-03 1.142125350953e+00)) ((-1.299888023741e+00 1.864336717828e+03 -1.756315204367e+00) (1.011457145500e-03 -1.804727941520e+00 2.102005576484e-03))
0.02001             	((-3.168761670066e+03 2.154824167109e+00 3.158348795463e+03) (-2.711571012209e+01 -3.157989776173e-03 2.118483978996e+00)) ((1.462019172105e+00 9.695973877500e+02 2.650395389436e+00) (9.177423316905e-04 -1.594729204961e+00 1.672160690569e-03))
0.02668             	((-1.907103558840e+03 1.254475898623e+00 2.589832950351e+03) (-2.802127392953e+01 -2.422825393548e-03 3.126197306595e+00)) ((-9.756489696049e-01 9.853554398690e+02 -1.925907583138e+00) (8.496705324125e-04 -1.609431871864e+00 6.869788705961e-04))
0.03335             	((1.469760464999e+03 -2.640169413333e+00 2.560726987013e+03) (-2.717344983306e+01 -2.258349689787e-03 4.060291043205e+00)) ((2.541898275842e-01 1.242738636336e+03 9.850432240155e-01) (9.132315611020e-04 -1.424222728995e+00 5.585789742435e-04))
0.04002             	((-4.644877227434e+02 1.885404546443e+00 2.580092028852e+03) (-2.677759474324e+01 -1.749058795283e-03 4.992843779884e+00)) ((5.941017374354e-02 1.025134348927e+03 -3.447694993285e-01) (9.969541060476e-04 -1.301058790617e+00 1.037365163521e-04))
0.04669             	((-1.832416542491e+02 -5.767368639732e-01 2.580328553001e+03) (-2.651570005033e+01 -1.432405937496e-03 5.917309748628e+00)) ((-2.563815236239e-01 1.095867276114e+03 -8.971949079236e-02) (9.962966692816e-04 -1.176538519408e+00 -3.160773436308e-04))
0.05336             	((1.041878531330e+01 -4.670212748252e-01 2.521351495219e+03) (-2.616298728103e+01 -1.105399178789e-03 6.816535566801e+00)) ((1.571466086267e-01 1.075747682105e+03 2.501719497451e-01) (1.007802375005e-03 -1.033650689448e+00 -7.552791447956e-04))
0.06003             	((-1.283885843239e+02 9.577767742974e-01 2.488791764398e+03) (-2.589031157343e+01 -6.026279142317e-04 7.704014087614e+00)) ((-1.978972932001e-01 1.039255986353e+03 -5.392197683956e-01) (9.813843395693e-04 -8.976931335969e-01 -1.382569684430e-03))
0.0667              	((-8.697885286316e+01 -1.011782513166e+00 2.480913276611e+03) (-2.565662635334e+01 -2.993035790793e-04 8.584174075612e+00)) ((5.770850745267e-02 1.052332078804e+03 4.855656631702e-01) (9.973929593324e-04 -7.553487223098e-01 -1.880059487872e-03))
0.07337             	((-7.242525695566e+01 7.838706162950e-01 2.408381773576e+03) (-2.544805034746e+01 9.495121472053e-05 9.448956798472e+00)) ((-1.161000053429e-01 1.009872240596e+03 -5.254855643065e-01) (1.021600741568e-03 -6.134998940231e-01 -2.461499853265e-03))
0.08337             	((-7.136300270276e+01 -6.531479594694e-01 2.356660885094e+03) (-2.513392567846e+01 3.000365278201e-04 1.053210459107e+01)) ((-2.382849190877e-03 9.826398951708e+02 3.537025127426e-01) (1.116550680603e-03 -3.875827243035e-01 -2.986689802804e-03))
0.09337             	((-5.648553981562e+01 1.287158824915e-01 2.264584483046e+03) (-2.493203854802e+01 4.871534273548e-04 1.178927395294e+01)) ((-6.811598436749e-02 9.511475344526e+02 -1.426547009799e-01) (1.235669037092e-03 -1.640341809337e-01 -3.496095062999e-03))
0.10337             	((-4.670608943861e+01 8.911025837496e-02 2.166869506451e+03) (-2.476889045009e+01 6.564928449866e-04 1.300015174600e+01)) ((-6.472397320038e-02 9.086958183089e+02 -1.283095922911e-01) (1.374443308032e-03 6.031316509480e-02 -3.983386230338e-03))
0.11337             	((-3.553875206097e+01 -3.318238230453e-01 2.096493581734e+03) (-2.463466454947e+01 7.468960057759e-04 1.416417743548e+01)) ((-3.323390582130e-02 8.832623447421e+02 1.504193874618e-01) (1.520537347548e-03 2.937155114534e-01 -4.384629333054e-03))
0.12337             	((-2.324863860784e+01 2.736997326391e-01 1.987184546899e+03) (-2.451741449356e+01 9.167528708184e-04 1.526571612787e+01)) ((-8.825352930441e-02 8.336458362446e+02 -2.401100408722e-01) (1.633704531543e-03 5.344905421637e-01 -4.843098494117e-03))
0.13337             	((-1.109044199722e+01 -3.123376034425e-01 1.895069729200e+03) (-2.441016377224e+01 9.854806302446e-04 1.629824455265e+01)) ((-3.653854566522e-02 7.985179404281e+02 1.411906277115e-01) (1.742802128131e-03 7.868798273602e-01 -5.172882109758e-03))
0.14337             	((1.200298784207e+00 8.970362733605e-02 1.786461948995e+03) (-2.430586575712e+01 1.100574965387e-03 1.725114739473e+01)) ((-7.829687795920e-02 7.529808002147e+02 -1.113825906833e-01) (1.832284144852e-03 1.051045140883e+00 -5.524254097935e-03))
0.15337             	((1.365444788734e+01 -8.851726789663e-02 1.675491334977e+03) (-2.419854927120e+01 1.204372348371e-03 1.811507794040e+01)) ((-6.229651319129e-02 7.082345551378e+02 3.764780620045e-03) (1.913706266034e-03 1.327790813843e+00 -5.861815135493e-03))
0.16337             	((2.599923240176e+01 -1.189241987722e-01 1.563424349486e+03) (-2.408363985230e+01 1.354880430075e-03 1.888330193435e+01)) ((-6.510872766064e-02 6.649331462179e+02 3.710771145744e-02) (1.964533678555e-03 1.619115273157e+00 -6.234119975977e-03))
0.17337             	((3.806275722143e+01 2.939474729629e-02 1.442459233326e+03) (-2.395701695894e+01 1.568088453989e-03 1.954816428510e+01)) ((-7.451522467229e-02 6.168842549652e+02 -6.639302348556e-02) (1.988381344213e-03 1.924075596003e+00 -6.646335902791e-03))
0.18337             	((4.991792535963e+01 -1.714768663390e-01 1.323579447589e+03) (-2.381486443258e+01 1.759442474081e-03 2.010456615380e+01)) ((-6.972625306791e-02 5.726875535014e+02 7.782163262078e-02) (1.998609862255e-03 2.243852529072e+00 -7.042707153270e-03))
0.19337             	((6.122676426433e+01 5.717697306977e-04 1.198716470585e+03) (-2.365391215132e+01 1.945319792475e-03 2.054675483767e+01)) ((-7.429730661442e-02 5.258733530417e+02 -2.527086169275e-02) (1.990650766428e-03 2.577889396909e+00 -7.434235754930e-03))
0.20337             	((7.206429786482e+01 -1.120606634897e-01 1.073794642800e+03) (-2.347143520023e+01 2.092320230873e-03 2.087125687475e+01)) ((-7.784154271486e-02 4.809681868514e+02 4.687821190171e-02) (1.978256975157e-03 2.925924250756e+00 -7.780507742583e-03))
0.21337             	((8.228779054105e+01 -8.114809278979e-02 9.473826293511e+02) (-2.326518019604e+01 2.241516990382e-03 2.107607199311e+01)) ((-7.599322610517e-02 4.367611346158e+02 3.467164320033e-02) (1.977761280634e-03 3.287354893900e+00 -8.106066785744e-03))
0.22337             	((9.178694129716e+01 -5.150885419471e-02 8.196210818953e+02) (-2.303326637493e+01 2.397380959921e-03 2.116036841317e+01)) ((-7.612578760821e-02 3.931441322679e+02 2.044316319136e-02) (1.993980808003e-03 3.661201969363e+00 -8.414731530007e-03))
0.23337             	((1.005708098750e+02 -1.084821405000e-01 6.927262197083e+02) (-2.277423924177e+01 2.570973663456e-03 2.112511607008e+01)) ((-7.597509253290e-02 3.517347481518e+02 6.398298273545e-02) (2.017884124456e-03 4.046934690420e+00 -8.732522355730e-03))
0.24337             	((1.084881747741e+02 -4.676528793547e-02 5.653386572995e+02) (-2.248703102511e+01 2.761177757659e-03 2.097199376374e+01)) ((-7.712162298383e-02 3.112599104666e+02 2.215483667032e-02) (2.051517631954e-03 4.443221407349e+00 -9.077387517799e-03))
0.25337             	((1.156146629353e+02 -9.543737306869e-02 4.393965742466e+02) (-2.217065191623e+01 2.925531901761e-03 2.070415324845e+01)) ((-7.798906276679e-02 2.730147801782e+02 5.229195851888e-02) (2.095927693410e-03 4.848778321471e+00 -9.414497771032e-03))
0.26337             	((1.218430368721e+02 -6.338655492495e-02 3.145597755210e+02) (-2.182478510831e+01 3.063006086334e-03 2.032565430646e+01)) ((-7.565963514589e-02 2.365075005733e+02 3.541618251732e-02) (2.130009088622e-03 5.261665196342e+00 -9.724957691762e-03))
0.27337             	((1.271668596755e+02 -6.512369258132e-02 1.915119270373e+02) (-2.144950446365e+01 3.158922499347e-03 1.984145096961e+01)) ((-7.293997725769e-02 2.019714781886e+02 3.456732533073e-02) (2.163837101308e-03 5.679437180251e+00 -1.000217073891e-02))
0.28337             	((1.315366854271e+02 -7.299226695812e-02 7.083836377834e+01) (-2.104582528364e+01 3.253230381874e-03 1.925772394492e+01)) ((-7.321863699383e-02 1.695716675220e+02 3.806761671260e-02) (2.168568182076e-03 6.099127429870e+00 -1.023463040166e-02))
0.29337             	((1.349354089159e+02 -3.962790069788e-02 -4.746083693667e+01) (-2.061532620088e+01 3.334331586594e-03 1.858178786815e+01)) ((-7.032112722171e-02 1.389455015003e+02 1.964934851812e-02) (2.143293918525e-03 6.517644340985e+00 -1.043758141185e-02))
0.30337             	((1.373596855559e+02 -5.101942876309e-02 -1.627206609328e+02) (-2.016152132728e+01 3.443750479335e-03 1.782414752025e+01)) ((-6.935109288820e-02 1.103024322469e+02 2.435778545438e-02) (2.090992789737e-03 6.931406463448e+00 -1.062859655463e-02))
0.31337             	((1.387556282332e+02 -2.507341602032e-02 -2.749247291363e+02) (-1.968584248076e+01 3.578585559439e-03 1.699203010562e+01)) ((-6.269074037586e-02 8.325279393647e+01 5.717658017119e-03) (2.024857175471e-03 7.337823285220e+00 -1.076758772078e-02))
0.32337             	((1.391324688277e+02 -1.337724814062e-02 -3.836724387797e+02) (-1.919073910495e+01 3.732782668965e-03 1.609399652317e+01)) ((-6.228307924533e-02 5.773260764466e+01 8.304050102687e-03) (1.941995166966e-03 7.734252034888e+00 -1.084353838644e-02))
0.33337             	((1.384608950214e+02 -5.927908127283e-03 -4.888529072335e+02) (-1.868002418972e+01 3.888328364522e-03 1.514113389558e+01)) ((-5.905319524980e-02 3.347080401083e+01 3.768089870963e-03) (1.862391954762e-03 8.116914440430e+00 -1.085236598833e-02))
0.34337             	((1.367551437203e+02 1.988802845324e-02 -5.902681002657e+02) (-1.815831912869e+01 4.016962273312e-03 1.414508504393e+01)) ((-5.565594107111e-02 1.011726597594e+01 -1.053141051364e-02) (1.799979593840e-03 8.482295299769e+00 -1.084454401134e-02))
0.35337             	((1.339201398143e+02 1.357129444252e-02 -6.876916738939e+02) (-1.762977141050e+01 4.129864297211e-03 1.311736288080e+01)) ((-5.507157359746e-02 -1.258327217342e+01 -2.722403139110e-03) (1.751166920343e-03 8.827516579608e+00 -1.083778200743e-02))
0.36337             	((1.300346808984e+02 4.940781441688e-02 -7.811161174340e+02) (-1.710068295948e+01 4.236352017285e-03 1.206930699114e+01)) ((-5.430376175406e-02 -3.495810296540e+01 -4.457720934752e-03) (1.705567671912e-03 9.149587564713e+00 -1.085368571830e-02))
0.37337             	((1.250828902205e+02 5.000999039036e-02 -8.704089640286e+02) (-1.657827625505e+01 4.305790197116e-03 1.101182851582e+01)) ((-4.865377331301e-02 -5.732116790028e+01 -9.872837351473e-03) (1.654896282442e-03 9.446635421630e+00 -1.089252287983e-02))
0.38337             	((1.191340148063e+02 7.699990172271e-02 -9.555628717250e+02) (-1.606969243699e+01 4.335082191683e-03 9.955321179506e+00)) ((-4.579214728906e-02 -7.998695602516e+01 -5.827202321150e-03) (1.619677372824e-03 9.717693293013e+00 -1.091361087806e-02))
0.39337             	((1.121318935723e+02 8.691542337617e-02 -1.036575906696e+03) (-1.558238632213e+01 4.353355348055e-03 8.909293968734e+00)) ((-3.952688328973e-02 -1.032984434150e+02 -9.172067674896e-03) (1.563174064778e-03 9.962424446787e+00 -1.088461472352e-02))
0.40337             	((1.040899033448e+02 1.114676674287e-01 -1.113269501956e+03) (-1.512386237494e+01 4.342674047426e-03 7.882470691865e+00)) ((-3.646536679147e-02 -1.274505879283e+02 -5.955076052103e-03) (1.474212876230e-03 1.017998812359e+01 -1.079537792465e-02))
0.41337             	((9.513877996191e+01 1.157868511659e-01 -1.185579042348e+03) (-1.470304761851e+01 4.331278092730e-03 6.882758196204e+00)) ((-3.802397678452e-02 -1.527212482514e+02 -3.101813204154e-03) (1.339265103895e-03 1.037037950973e+01 -1.064583310314e-02))
0.42337             	((8.531687140923e+01 1.223489971203e-01 -1.253618999428e+03) (-1.432926915655e+01 4.296091074972e-03 5.914277364771e+00)) ((-4.010544176158e-02 -1.793491199736e+02 -3.684640631860e-04) (1.187976769880e-03 1.053451200639e+01 -1.049741921377e-02))
0.43337             	((7.472885569941e+01 1.316706833436e-01 -1.317020014835e+03) (-1.400869393604e+01 4.193986075134e-03 4.976095216793e+00)) ((-4.483538362197e-02 -2.073725669961e+02 6.457217595965e-04) (1.091193093343e-03 1.067279500736e+01 -1.029997226309e-02))
0.44337             	((6.342861463347e+01 1.391040845363e-01 -1.375918184556e+03) (-1.374599703817e+01 4.046827598618e-03 4.066040996449e+00)) ((-4.723537106444e-02 -2.369259778722e+02 -7.074638075821e-03) (1.019599250269e-03 1.078573857263e+01 -1.006811667033e-02))
0.45337             	((5.152893512692e+01 1.370681137741e-01 -1.429783803095e+03) (-1.354667200425e+01 3.953936726358e-03 3.179038587899e+00)) ((-4.734310517614e-02 -2.678912810252e+02 -5.616266838302e-03) (9.786025480021e-04 1.087392273201e+01 -9.875655718478e-03))
0.46337             	((3.905611559632e+01 1.520763611659e-01 -1.478584201281e+03) (-1.341434158561e+01 3.875269000220e-03 2.303723512069e+00)) ((-6.244300870360e-02 -3.002588460904e+02 -7.161435518896e-03) (9.812334045567e-04 1.093721710531e+01 -9.738850738168e-03))
0.47337             	((2.602408835229e+01 1.325017838970e-01 -1.522400498765e+03) (-1.334770218820e+01 3.769342940907e-03 1.422777160985e+00)) ((-5.744033606722e-02 -3.339034570785e+02 -1.158604188496e-02) (9.847159102177e-04 1.097633366364e+01 -9.633322489512e-03))
0.48337             	((1.276804617189e+01 1.520110525499e-01 -1.561073703830e+03) (-1.334231035060e+01 3.598967959303e-03 5.194688292525e-01)) ((-6.978744739499e-02 -3.686948852845e+02 -2.620411640715e-02) (9.897827505216e-04 1.099165800352e+01 -9.550479822847e-03))
0.49337             	((-3.818197536662e-01 1.270818245065e-01 -1.594564417232e+03) (-1.339020810460e+01 3.390854347752e-03 -4.233729483735e-01)) ((-7.924885719437e-02 -4.043563475897e+02 -2.222497595469e-02) (1.006786134998e-03 1.098367790957e+01 -9.446420378338e-03))
0.50337             	((-1.333443941108e+01 8.638744124610e-02 -1.622922403489e+03) (-1.348120655614e+01 3.198629031077e-03 -1.419240428783e+00)) ((-8.672068129228e-02 -4.406102808061e+02 -3.328016103197e-02) (1.046751163430e-03 1.095228430449e+01 -9.301026824918e-03))
0.51337             	((-2.588312317349e+01 1.104351445342e-01 -1.645849419179e+03) (-1.360580622293e+01 3.082159451119e-03 -2.469323460368e+00)) ((-9.232175083113e-02 -4.773315040085e+02 -4.248758706940e-02) (1.118636534108e-03 1.089342557393e+01 -9.151066445528e-03))
0.52337             	((-3.787270985039e+01 8.035322803065e-02 -1.663731633017e+03) (-1.375773668790e+01 3.073631876907e-03 -3.567735118736e+00)) ((-1.119711823570e-01 -5.139757231964e+02 -1.187255289878e-02) (1.208758622649e-03 1.080164776118e+01 -9.028003487071e-03))
0.53337             	((-4.934640903691e+01 8.182818703458e-02 -1.675971117908e+03) (-1.393358005527e+01 3.188865929632e-03 -4.705091878513e+00)) ((-1.160963065931e-01 -5.503781538442e+02 -3.599716479520e-02) (1.331117081251e-03 1.067163099306e+01 -9.007969070626e-03))
0.54337             	((-6.000256074613e+01 7.159499784990e-02 -1.682320045100e+03) (-1.413150377746e+01 3.407041573377e-03 -5.870370556697e+00)) ((-1.185114459895e-01 -5.859139272609e+02 -4.515445760172e-02) (1.454844071455e-03 1.049872415441e+01 -9.053968965338e-03))
0.55337             	((-6.808417307585e+01 6.354382282877e-02 -1.683089251937e+03) (-1.435134340898e+01 3.809050042628e-03 -7.050943650938e+00)) ((-8.678788645161e-02 -6.211433405706e+02 -2.529022155958e-03) (1.589690021852e-03 1.027893123207e+01 -9.287510133799e-03))
0.56337             	((-7.888825229433e+01 1.742741956261e-01 -1.678378203591e+03) (-1.459260143214e+01 4.309470165894e-03 -8.233191990957e+00)) ((-6.248508636982e-02 -6.526245158240e+02 -8.412667471313e-02) (1.708448579056e-03 1.001126786672e+01 -9.649350490036e-03))
0.57337             	((-8.675273390791e+01 1.025233494960e-01 -1.667507150600e+03) (-1.485312729704e+01 4.751674301492e-03 -9.403937065497e+00)) ((-8.259036449020e-02 -6.826938916342e+02 -7.306047951624e-02) (1.775373252353e-03 9.692314084268e+00 -1.000593414255e-02))
0.58337             	((-9.383983458033e+01 9.172365182248e-02 -1.650615472838e+03) (-1.513225327301e+01 5.140658309235e-03 -1.055099303140e+01)) ((-7.521991801687e-02 -7.095937122888e+02 -9.547690212251e-02) (1.779093367076e-03 9.320961059783e+00 -1.030357307700e-02))
0.59337             	((-1.002232736699e+02 9.719027285628e-02 -1.627858692545e+03) (-1.542887956559e+01 5.433079192101e-03 -1.166331026536e+01)) ((-7.982031452750e-02 -7.331715287725e+02 -1.250384580981e-01) (1.736681810156e-03 8.897728105879e+00 -1.055362876572e-02))
0.60337             	((-1.056534908498e+02 5.361659163787e-02 -1.599373004181e+03) (-1.574071566934e+01 5.684049571891e-03 -1.273149983098e+01)) ((-8.888079145348e-02 -7.530494824953e+02 -6.716438845662e-02) (1.627097568588e-03 8.423361430095e+00 -1.081674353847e-02))
0.61337             	((-1.100777580560e+02 5.735365435046e-02 -1.564927452225e+03) (-1.606572506271e+01 5.884271260866e-03 -1.374814288716e+01)) ((-8.273081893804e-02 -7.685812119427e+02 -6.336886801256e-02) (1.435688046534e-03 7.899261540520e+00 -1.105906455226e-02))
0.62337             	((-1.137091118313e+02 -1.737598245580e-03 -1.524819448524e+03) (-1.640167353882e+01 6.087375034879e-03 -1.470874505855e+01)) ((-7.897443594095e-02 -7.796662268036e+02 -3.322238632199e-02) (1.218586322533e-03 7.327843039102e+00 -1.132569910097e-02))
0.63337             	((-1.166622512309e+02 2.174447747013e-02 -1.479272554800e+03) (-1.674541068130e+01 6.355657358083e-03 -1.560916207004e+01)) ((-8.294242772761e-02 -7.860870330221e+02 -4.631706071806e-02) (1.006742066658e-03 6.710792189343e+00 -1.167805551193e-02))
0.64337             	((-1.190254537178e+02 -5.438982842391e-02 -1.428484665455e+03) (-1.709508296295e+01 6.625415974161e-03 -1.644647643784e+01)) ((-9.787454378144e-02 -7.876160087702e+02 -2.478079820782e-02) (8.442355096767e-04 6.050868666222e+00 -1.204704702446e-02))
0.65337             	((-1.210330645268e+02 -8.769186652052e-02 -1.372639509112e+03) (-1.744836219296e+01 6.831061134698e-03 -1.721820806652e+01)) ((-1.022477135631e-01 -7.840761531035e+02 1.152611118430e-02) (7.473764989382e-04 5.350599124515e+00 -1.232802745816e-02))
0.66337             	((-1.224913889369e+02 -8.749706482126e-02 -1.311896386946e+03) (-1.780331330615e+01 7.054013496100e-03 -1.792262827255e+01)) ((-1.006039248433e-01 -7.756035702459e+02 -6.199957052267e-03) (7.081375751156e-04 4.613446806121e+00 -1.262126713750e-02))
0.67337             	((-1.239826258163e+02 -1.357214392178e-01 -1.246186254338e+03) (-1.815741284269e+01 7.254050009037e-03 -1.855817463800e+01)) ((-9.930062038896e-02 -7.618374310022e+02 1.837667659814e-02) (6.917778882130e-04 3.842685468447e+00 -1.296120658154e-02))
0.68337             	((-1.252434603433e+02 -1.275215573185e-01 -1.176217803047e+03) (-1.850751691083e+01 7.497033226527e-03 -1.912223996757e+01)) ((-9.134660548840e-02 -7.434125078598e+02 1.122153420329e-02) (7.119944820705e-04 3.042287206523e+00 -1.347824209275e-02))
0.69337             	((-1.265483916115e+02 -1.175514891370e-01 -1.101862266714e+03) (-1.885077395907e+01 7.678204918921e-03 -1.961263204507e+01)) ((-5.665425278595e-02 -7.201488970004e+02 -2.201621149093e-02) (6.715526188154e-04 2.217393198208e+00 -1.394954207958e-02))
0.70337             	((-1.278771952917e+02 -1.394317662780e-01 -1.023419488085e+03) (-1.918401367733e+01 7.786928828110e-03 -2.002705356358e+01)) ((-5.191768551189e-02 -6.923914486329e+02 3.968998990189e-03) (5.376178514989e-04 1.374079362823e+00 -1.434332022198e-02))
0.71337             	((-1.294109959583e+02 -1.115477941012e-01 -9.414288489095e+02) (-1.950353235915e+01 7.924846801522e-03 -2.036326943410e+01)) ((-4.019740384677e-02 -6.602924894087e+02 -2.618285401752e-02) (3.681887094272e-04 5.187693418154e-01 -1.476399583710e-02))
0.72337             	((-1.311628727004e+02 -1.441116688809e-01 -8.564044962911e+02) (-1.980543322105e+01 8.047601920933e-03 -2.061923130501e+01)) ((-2.157614684496e-02 -6.240811219015e+02 -1.318463118683e-02) (1.743077064053e-04 -3.411271601584e-01 -1.515100729356e-02))
0.73337             	((-1.331695912975e+02 -1.418049857608e-01 -7.684366545836e+02) (-2.008679570324e+01 8.177453955528e-03 -2.079293261898e+01)) ((-1.855640584934e-02 -5.838955028905e+02 -3.254948351032e-02) (-6.810443602401e-06 -1.196048489871e+00 -1.555857399293e-02))
0.74337             	((-1.353792897132e+02 -1.281996382534e-01 -6.775119810378e+02) (-2.034523793977e+01 8.424183320604e-03 -2.088289986507e+01)) ((-3.372245537813e-03 -5.402119239245e+02 -5.814106418265e-02) (-6.411347482521e-05 -2.036213446063e+00 -1.613703474600e-02))
0.75337             	((-1.378015124669e+02 -1.579328769259e-01 -5.839354342814e+02) (-2.057865114217e+01 8.862954515765e-03 -2.088856646268e+01)) ((5.966013014002e-03 -4.935379916911e+02 -6.608216985083e-02) (2.513118953201e-05 -2.853797625762e+00 -1.696130172813e-02))
0.76337             	((-1.406562714678e+02 -1.789867181769e-01 -4.880219991461e+02) (-2.078432449665e+01 9.257377168598e-03 -2.080959776051e+01)) ((1.724784671876e-02 -4.441751687439e+02 -4.914078309082e-02) (1.124227791781e-04 -3.641568851029e+00 -1.771000412361e-02))
0.77337             	((-1.434403933758e+02 -1.702276360427e-01 -3.898556464774e+02) (-2.095910474575e+01 9.351703224224e-03 -2.064677371209e+01)) ((3.186383796073e-02 -3.920219038412e+02 -7.420076880084e-02) (9.561810040748e-05 -4.392862895008e+00 -1.801670159451e-02))
0.78337             	((-1.464989072546e+02 -1.945563843469e-01 -2.897036950296e+02) (-2.110084875485e+01 9.183821836814e-03 -2.040119722573e+01)) ((4.642616769065e-02 -3.379811103489e+02 -8.288490602010e-02) (2.090301047369e-05 -5.100505021392e+00 -1.795932976757e-02))
0.79337             	((-1.495503982132e+02 -1.876549788991e-01 -1.876674655194e+02) (-2.120785892347e+01 8.873340546642e-03 -2.007460171672e+01)) ((6.901545800115e-02 -2.820501933424e+02 -1.217186266537e-01) (-9.493765929797e-05 -5.757659124525e+00 -1.770059395538e-02))
0.80337             	((-1.529366108171e+02 -2.420045663824e-01 -8.415587444699e+01) (-2.127943703226e+01 8.462842735531e-03 -1.966979601860e+01)) ((9.256041319684e-02 -2.241193470144e+02 -1.283439674870e-01) (-2.648373957608e-04 -6.358917901357e+00 -1.730459409103e-02))
0.81337             	((-1.566857303186e+02 -2.364376216045e-01 2.030274850761e+01) (-2.131523163558e+01 7.990539015288e-03 -1.919045873035e+01)) ((1.268783151124e-01 -1.647359639209e+02 -1.178183991580e-01) (-4.551339732999e-04 -6.900840449814e+00 -1.677062129743e-02))
0.82337             	((-1.610704628112e+02 -2.296075767958e-01 1.250999852094e+02) (-2.131479183119e+01 7.593903155715e-03 -1.864053013690e+01)) ((1.512846979226e-01 -1.042570635594e+02 -1.708699751703e-01) (-5.916925386934e-04 -7.381108985008e+00 -1.621221690570e-02))
0.83337             	((-1.657488780039e+02 -2.516112037460e-01 2.294637202840e+02) (-2.127821330840e+01 7.444794663772e-03 -1.802430624079e+01)) ((1.585499668805e-01 -4.300857154621e+01 -1.441013890538e-01) (-5.364546582832e-04 -7.797763862185e+00 -1.592372101660e-02))
0.84337             	((-1.706494668269e+02 -2.195488634643e-01 3.328117536451e+02) (-2.120674053818e+01 7.551238478541e-03 -1.734630148667e+01)) ((1.618055403759e-01 1.859978401094e+01 -1.680337626004e-01) (-3.425501876687e-04 -8.149933600495e+00 -1.593980953909e-02))
0.85337             	((-1.758997891968e+02 -2.362941476385e-01 4.352045997293e+02) (-2.110253438795e+01 7.816693205292e-03 -1.661161503255e+01)) ((1.467247674697e-01 8.038206299922e+01 -1.259765490952e-01) (-6.985630014419e-05 -8.438079018833e+00 -1.618210432411e-02))
0.86337             	((-1.814109038850e+02 -2.104403886343e-01 5.361583414167e+02) (-2.096843710939e+01 8.128673630860e-03 -1.582672402920e+01)) ((1.218749313654e-01 1.416905067724e+02 -1.223854616878e-01) (2.562079155018e-04 -8.664279003338e+00 -1.651697291199e-02))
0.87337             	((-1.868315273953e+02 -2.376778376716e-01 6.350952836211e+02) (-2.080788030889e+01 8.489879350156e-03 -1.499848967747e+01)) ((1.102973577948e-01 2.022162926654e+02 -8.905391100186e-02) (6.178034934611e-04 -8.831164724186e+00 -1.699472215386e-02))
0.88337             	((-1.920376787593e+02 -2.202055344632e-01 7.314496951482e+02) (-2.062502680351e+01 8.838544773550e-03 -1.413371549248e+01)) ((7.628011493052e-02 2.614566380121e+02 -4.853005030591e-02) (1.003345317928e-03 -8.941980980268e+00 -1.749068790894e-02))
0.89337             	((-1.970270835412e+02 -2.046627688341e-01 8.248986962094e+02) (-2.042451254145e+01 9.142187173451e-03 -1.323916998261e+01)) ((5.530496356183e-02 3.190583810952e+02 -3.929040987383e-02) (1.384072668024e-03 -9.000603830724e+00 -1.798680508193e-02))
0.90337             	((-2.018092151306e+02 -1.737927008106e-01 9.149532485859e+02) (-2.021134342754e+01 9.407122987570e-03 -1.232152152384e+01)) ((3.057796914491e-02 3.745933338180e+02 -6.529308287752e-02) (1.742998785279e-03 -9.011016828266e+00 -1.843411231713e-02))
0.91337             	((-2.064330372469e+02 -1.748785484080e-01 1.001073893774e+03) (-1.999090282378e+01 9.704525792091e-03 -1.138697062916e+01)) ((2.659144512229e-02 4.277389267476e+02 -8.489754694234e-02) (2.074577953431e-03 -8.976943949421e+00 -1.889994527064e-02))
0.92337             	((-2.105843072457e+02 -1.552126969295e-01 1.082802707424e+03) (-1.976876132459e+01 9.992487553239e-03 -1.044096247407e+01)) ((2.616284386857e-02 4.780032318227e+02 -1.424082859819e-01) (2.360056700260e-03 -8.902054844311e+00 -1.929955101594e-02))
0.93337             	((-2.142286385439e+02 -1.650673784988e-01 1.159784606140e+03) (-1.954977742525e+01 1.031465470546e-02 -9.487533069556e+00)) ((1.448425109493e-02 5.249960025254e+02 -1.619847426076e-01) (2.690477771181e-03 -8.789646755828e+00 -1.967895110170e-02))
0.94337             	((-2.173714359698e+02 -1.898135404702e-01 1.231388065106e+03) (-1.933650104430e+01 1.062142528614e-02 -8.529577729284e+00)) ((5.776402322979e-03 5.684116471287e+02 -1.732363932788e-01) (3.056460664504e-03 -8.643275598982e+00 -1.996893551716e-02))
0.95337             	((-2.198134555821e+02 -2.107569075504e-01 1.297357918155e+03) (-1.913227001177e+01 1.091105316421e-02 -7.569466775399e+00)) ((1.330762960032e-02 6.078396827252e+02 -1.798526492022e-01) (3.408954089465e-03 -8.467351617061e+00 -2.019105325676e-02))
0.96337             	((-2.214468193663e+02 -1.885264044281e-01 1.357243296084e+03) (-1.894162541590e+01 1.127321496338e-02 -6.608981851385e+00)) ((2.375153584250e-02 6.429968559974e+02 -1.987636634933e-01) (3.768749468561e-03 -8.266639463566e+00 -2.052938689186e-02))
0.97337             	((-2.223642450502e+02 -1.809223450220e-01 1.410809029558e+03) (-1.876923760233e+01 1.159544965858e-02 -5.648775369409e+00)) ((3.168009959004e-02 6.739037774403e+02 -1.920624715365e-01) (4.093777923627e-03 -8.045564962286e+00 -2.083794595177e-02))
0.98337             	((-2.225801442821e+02 -1.625915237805e-01 1.457548735162e+03) (-1.861931188812e+01 1.177848488397e-02 -4.688777147453e+00)) ((3.700298182735e-02 7.002339408229e+02 -2.195712923052e-01) (4.354399912244e-03 -7.808324114775e+00 -2.097840728648e-02))
0.99337             	((-2.220274263665e+02 -1.892710311549e-01 1.497846701894e+03) (-1.849545151659e+01 1.186937022683e-02 -3.728395486888e+00)) ((5.645814457602e-02 7.218954432314e+02 -1.763132459203e-01) (4.564196014978e-03 -7.558897702889e+00 -2.099680099677e-02))
1.00337             	((-2.205228407874e+02 -1.343309641777e-01 1.531269453525e+03) (-1.840075569254e+01 1.188383195677e-02 -2.767794199542e+00)) ((6.160165984440e-02 7.385884317229e+02 -2.168329676109e-01) (4.692341257799e-03 -7.301220053119e+00 -2.091958740955e-02))
1.01337             	((-2.181788994924e+02 -1.564104643403e-01 1.557721694939e+03) (-1.833761543357e+01 1.182497593704e-02 -1.808387341271e+00)) ((8.735850393557e-02 7.502801930645e+02 -1.954644009299e-01) (4.745304172761e-03 -7.038843423279e+00 -2.076657540769e-02))
1.02337             	((-2.149080755579e+02 -1.537245142984e-01 1.576688100865e+03) (-1.830764866435e+01 1.163769871721e-02 -8.483711050666e-01)) ((9.281121435694e-02 7.566247270512e+02 -1.980191954771e-01) (4.728125635833e-03 -6.775421089356e+00 -2.046034459911e-02))
1.03337             	((-2.106915425388e+02 -1.492606291631e-01 1.588767667542e+03) (-1.831210855687e+01 1.140104046192e-02 1.175199832620e-01)) ((8.303403980625e-02 7.573060860435e+02 -1.730183169398e-01) (4.653220187960e-03 -6.513453780389e+00 -2.012957497628e-02))
1.04337             	((-2.059182713578e+02 -1.539027739071e-01 1.595029079065e+03) (-1.835131057422e+01 1.113363294658e-02 1.091257053562e+00)) ((8.977843820535e-02 7.523263125349e+02 -1.578835412961e-01) (4.517678513187e-03 -6.253722551484e+00 -1.981463767694e-02))
1.05337             	((-2.002295538645e+02 -1.466430691280e-01 1.594252596938e+03) (-1.842469726854e+01 1.091058219151e-02 2.070199953538e+00)) ((9.181291608902e-02 7.416852714107e+02 -1.526421306610e-01) (4.365937874310e-03 -5.996548375651e+00 -1.962545664385e-02))
1.06337             	((-1.936127438858e+02 -1.859941355030e-01 1.586472565921e+03) (-1.853119380725e+01 1.071837045003e-02 3.050721417735e+00)) ((8.991278883076e-02 7.257232798107e+02 -8.163016759182e-02) (4.208683747652e-03 -5.741874020241e+00 -1.963420207074e-02))