# Forces            
# CofR              : (1.500000000000e+00 0.000000000000e+00 5.000000000000e-01)
# Time              forces(pressure viscous)	moments(pressure viscous)
0                   	((0.000000000000e+00 0.000000000000e+00 0.000000000000e+00) (-3.727604196460e-03 1.304718601074e-06 -1.074689537691e-06)) ((0.000000000000e+00 0.000000000000e+00 0.000000000000e+00) (2.645569892133e-07 1.679013410554e-03 1.118790646508e-03))
0.00667             	((1.342239119363e-03 8.108393644910e-01 2.532628402373e+00) (-4.633821610760e-03 -4.699634886685e-04 8.132635020005e-04)) ((1.123168252762e+00 1.372943463486e+00 -4.013201587459e-01) (3.294851303156e-05 2.514184227805e-03 1.642388384447e-03))
0.01334             	((-7.262021427350e-04 -6.634137739917e-01 -1.635980157185e+00) (-3.616564422971e-03 -3.334915158694e-04 7.187992019766e-04)) ((-7.889194018691e-01 -8.850024140777e-01 3.247076594297e-01) (6.632216688507e-05 2.003243125089e-03 1.263455623178e-03))
0.02001             	((1.709042647632e-04 -1.277233751372e-01 -6.691298468734e-02) (-3.354044841118e-03 -3.274414182626e-04 9.201972710611e-04)) ((-7.790931414779e-02 -3.359837478089e-02 6.012252241921e-02) (1.296868267029e-04 1.989695875031e-03 1.180767463418e-03))
0.02668             	((1.191275695262e-04 -9.558495674471e-02 -5.265226076225e-02) (-3.455755569055e-03 -3.336803860417e-04 1.165415039038e-03)) ((-5.910536679341e-02 -2.679301198941e-02 4.508371712331e-02) (2.006221944724e-04 2.164804814267e-03 1.214032754792e-03))
0.03335             	((-2.315792421059e-04 -1.652245294616e-01 -2.488797107303e-01) (-3.371398019168e-03 -3.036887810470e-04 1.335729457180e-03)) ((-1.494274122489e-01 -1.342267279324e-01 7.997783468799e-02) (2.653647570194e-04 2.217437206273e-03 1.172010498478e-03))
0.04002             	((-4.518324891940e-05 -1.135480190053e-01 -1.060487184631e-01) (-3.329411134777e-03 -2.879635816988e-04 1.528118356260e-03)) ((-8.338944594338e-02 -5.646457055768e-02 5.439003322324e-02) (3.302636724324e-04 2.302258376774e-03 1.150398693593e-03))
0.04669             	((-9.090193640821e-05 -1.060727031125e-01 -9.606037400595e-02) (-3.306754194133e-03 -2.776813246373e-04 1.723320474826e-03)) ((-7.711733149614e-02 -5.137598758795e-02 5.092284690870e-02) (3.935128481948e-04 2.398693617207e-03 1.137500574640e-03))
0.05336             	((-8.891110208349e-05 -9.405342035369e-02 -7.561903488054e-02) (-3.274899736136e-03 -2.695930337338e-04 1.909305317234e-03)) ((-6.564304246318e-02 -4.053280292701e-02 4.516559991452e-02) (4.529549877593e-04 2.487530738571e-03 1.123060238160e-03))
0.06003             	((4.977178795142e-05 -7.545639423137e-02 -3.579816718574e-02) (-3.251175247019e-03 -2.678042172966e-04 2.091812566599e-03)) ((-4.533752328475e-02 -1.892877711105e-02 3.599563531768e-02) (5.084368478401e-04 2.579679645845e-03 1.114538458983e-03))
0.0667              	((1.952377720400e-04 -6.138926494995e-02 -8.668684975164e-03) (-3.232355240250e-03 -2.717022724923e-04 2.267051943746e-03)) ((-3.086369152012e-02 -4.236050854200e-03 2.904937348577e-02) (5.590711967991e-04 2.671639704636e-03 1.110632816947e-03))
0.07337             	((4.753117593300e-04 -4.227924706287e-02 2.697052532719e-02) (-3.214380516227e-03 -2.805720382206e-04 2.426843586659e-03)) ((-1.146344920460e-02 1.519412169487e-02 1.950179399523e-02) (6.026841715786e-04 2.757237463454e-03 1.109745717774e-03))
0.08337             	((1.082505109598e-03 -1.484944955685e-02 7.897179102721e-02) (-3.205930799766e-03 -2.956860845485e-04 2.643555983122e-03)) ((1.676506701798e-02 4.377146293079e-02 5.603639017962e-03) (6.601467462772e-04 2.885184423737e-03 1.115339012768e-03))
0.09337             	((1.947330520856e-03 1.400019349480e-02 1.290194392444e-01) (-3.179362630682e-03 -3.097214620383e-04 2.808341180869e-03)) ((4.527927631352e-02 7.140809902184e-02 -9.236128233249e-03) (7.022397104539e-04 2.979451580846e-03 1.114891218989e-03))
0.10337             	((3.125664832402e-03 4.257452207362e-02 1.791886654080e-01) (-3.144149504685e-03 -3.229543654220e-04 2.921748335490e-03)) ((7.393971045857e-02 9.935744946779e-02 -2.420941837406e-02) (7.289639193842e-04 3.044966061940e-03 1.111640683974e-03))
0.11337             	((4.584050571092e-03 6.938932096737e-02 2.255419012738e-01) (-3.102954556936e-03 -3.341608960019e-04 2.989375700850e-03)) ((1.008892442498e-01 1.254097789244e-01 -3.855656780097e-02) (7.425953893844e-04 3.085413855492e-03 1.105891275339e-03))
0.12337             	((6.441392971668e-03 9.819495085381e-02 2.736208092065e-01) (-3.058713312078e-03 -3.401002687490e-04 3.005105254231e-03)) ((1.296115637601e-01 1.526143004746e-01 -5.422466687207e-02) (7.428833540571e-04 3.097998025523e-03 1.096609441271e-03))
0.13337             	((8.593741398889e-03 1.249439021637e-01 3.173754883309e-01) (-3.015900513449e-03 -3.423525490042e-04 2.977811706076e-03)) ((1.563711595560e-01 1.775919356505e-01 -6.912341628922e-02) (7.318023397129e-04 3.089051589394e-03 1.085853133578e-03))
0.14337             	((1.109855547051e-02 1.516262856832e-01 3.596451067182e-01) (-2.975591610376e-03 -3.425470376757e-04 2.908715612461e-03)) ((1.829979346916e-01 2.019007597014e-01 -8.429035179458e-02) (7.089750786294e-04 3.059210094281e-03 1.074733147289e-03))
0.15337             	((1.391431341852e-02 1.773262604594e-01 3.991656861403e-01) (-2.935311412019e-03 -3.397172011667e-04 2.800555306784e-03)) ((2.086759407863e-01 2.248080828788e-01 -9.923338474739e-02) (6.757480553706e-04 3.008278712406e-03 1.061980123219e-03))
0.16337             	((1.700812941670e-02 2.017121019653e-01 4.354889084763e-01) (-2.890917429428e-03 -3.314250217714e-04 2.651325488462e-03)) ((2.331042045973e-01 2.460411292273e-01 -1.137584883242e-01) (6.328301626095e-04 2.932261078693e-03 1.045057710697e-03))
0.17337             	((2.038899939870e-02 2.250430168542e-01 4.696111988545e-01) (-2.843351629765e-03 -3.115458190874e-04 2.465757592716e-03)) ((2.567056100976e-01 2.661450905625e-01 -1.279923524707e-01) (5.849230086438e-04 2.833581496934e-03 1.020755677288e-03))
0.18337             	((2.401683349124e-02 2.468395597718e-01 5.011833119817e-01) (-2.793458777551e-03 -2.776218556251e-04 2.252332084593e-03)) ((2.791190762939e-01 2.848610066392e-01 -1.416509170864e-01) (5.361142137041e-04 2.716790709036e-03 9.876315667909e-04))
0.19337             	((2.792889390825e-02 2.674632890669e-01 5.316432714848e-01) (-2.743347797709e-03 -2.362547331737e-04 2.023584030975e-03)) ((3.009453095349e-01 3.029639247834e-01 -1.549289688262e-01) (4.870136211159e-04 2.589684687517e-03 9.499830893990e-04))
0.20337             	((3.205019131140e-02 2.866803496173e-01 5.600627977838e-01) (-2.694886633860e-03 -1.921404555211e-04 1.784163950787e-03)) ((3.217626562880e-01 3.199089184577e-01 -1.676651743471e-01) (4.366939299399e-04 2.455569112217e-03 9.110261101430e-04))
0.21337             	((3.635049802636e-02 3.045698479618e-01 5.865627069047e-01) (-2.650371459683e-03 -1.462093906810e-04 1.530192741159e-03)) ((3.416223640359e-01 3.357610978357e-01 -1.798682492986e-01) (3.835767537023e-04 2.313103032546e-03 8.719115947709e-04))
0.22337             	((4.079407501264e-02 3.218787451429e-01 6.113631789865e-01) (-2.611771359278e-03 -1.016150921406e-04 1.264612394750e-03)) ((3.609760972660e-01 3.506168286142e-01 -1.919127496788e-01) (3.268834834015e-04 2.164716558919e-03 8.349891612188e-04))
0.23337             	((4.531214269855e-02 3.383286783358e-01 6.340462920515e-01) (-2.570419138343e-03 -5.828846188211e-05 9.952928840973e-04)) ((3.795286225965e-01 3.642237562351e-01 -2.036181371558e-01) (2.690056380089e-04 2.010036963165e-03 7.975231854859e-04))
0.24337             	((4.987245926065e-02 3.537611992733e-01 6.548176443898e-01) (-2.520630381895e-03 -1.340062630012e-05 7.123773277651e-04)) ((3.972273422491e-01 3.766828528977e-01 -2.148844609390e-01) (2.085681466832e-04 1.840016149993e-03 7.561535221638e-04))
0.25337             	((5.438353565784e-02 3.684764499303e-01 6.731395034073e-01) (-2.464719058597e-03 3.151894587685e-05 4.210202851098e-04)) ((4.140541873983e-01 3.876736272263e-01 -2.258489106558e-01) (1.462925874056e-04 1.658456168910e-03 7.123631801319e-04))
0.26337             	((5.891428981359e-02 3.837941871827e-01 6.905788994257e-01) (-2.426822569180e-03 5.712777360723e-05 1.720484090336e-04)) ((4.312257516153e-01 3.980523990689e-01 -2.372943615088e-01) (8.623018642966e-05 1.508932725917e-03 6.847262174022e-04))
0.27337             	((6.316422848357e-02 3.978490372875e-01 7.044937633889e-01) (-2.431285429945e-03 6.776512285157e-05 -4.699909880692e-05)) ((4.468500380901e-01 4.064130812773e-01 -2.480406865142e-01) (2.672505634390e-05 1.399524276171e-03 6.782046595699e-04))
0.28337             	((6.710032409526e-02 4.099140598541e-01 7.151625010484e-01) (-2.487374140049e-03 7.511029286615e-05 -2.539335868197e-04)) ((4.605328086601e-01 4.129233892178e-01 -2.576307028829e-01) (-3.097996156163e-05 1.326420953850e-03 6.887360197456e-04))
0.29337             	((7.084190391148e-02 4.199515265156e-01 7.245122760099e-01) (-2.591882194104e-03 8.766318352232e-05 -4.625496432159e-04)) ((4.727663793702e-01 4.187114176311e-01 -2.660696680436e-01) (-8.597340976163e-05 1.280503649708e-03 7.101436608360e-04))
0.30337             	((7.459413829332e-02 4.281062438892e-01 7.350472445113e-01) (-2.740566262755e-03 1.112993438544e-04 -6.885454930881e-04)) ((4.843258046393e-01 4.252905985723e-01 -2.734928996084e-01) (-1.392439848944e-04 1.249760545793e-03 7.373926851094e-04))
0.31337             	((7.823786739752e-02 4.343918398534e-01 7.457798182693e-01) (-2.937205499995e-03 1.532553845485e-04 -9.332433423784e-04)) ((4.948709461777e-01 4.320776560685e-01 -2.798398391849e-01) (-1.864114157346e-04 1.236528494844e-03 7.669533435412e-04))
0.32337             	((8.126103401541e-02 4.393338121908e-01 7.523790891837e-01) (-3.179931491854e-03 2.053342231508e-04 -1.176089284416e-03)) ((5.033876635364e-01 4.364623299714e-01 -2.852078591960e-01) (-2.260199451632e-04 1.255120110466e-03 8.036062242230e-04))
0.33337             	((8.352114422097e-02 4.431014537895e-01 7.542465004355e-01) (-3.438732912307e-03 2.492458594193e-04 -1.416156268380e-03)) ((5.097617055668e-01 4.380816939170e-01 -2.896216552485e-01) (-2.692012812900e-04 1.288849468729e-03 8.504375837672e-04))
0.34337             	((8.493288621577e-02 4.446252953921e-01 7.511531079377e-01) (-3.696746940717e-03 2.854774889797e-04 -1.628890234576e-03)) ((5.131848315845e-01 4.368990558242e-01 -2.924206156332e-01) (-3.084485081056e-04 1.342930902272e-03 9.023929448549e-04))
0.35337             	((8.533279635852e-02 4.432669446766e-01 7.421883919084e-01) (-3.938353337235e-03 3.277547666719e-04 -1.806873953990e-03)) ((5.129047918452e-01 4.323958983531e-01 -2.931279480767e-01) (-3.327543654964e-04 1.411410001966e-03 9.461400005919e-04))
0.36337             	((8.478397819531e-02 4.397392621410e-01 7.283086275452e-01) (-4.140956783156e-03 3.820138703345e-04 -1.951318222181e-03)) ((5.096104803995e-01 4.251324555354e-01 -2.921392162997e-01) (-3.384532083105e-04 1.478200558986e-03 9.709315156455e-04))
0.37337             	((8.332225537339e-02 4.346860746718e-01 7.100070517100e-01) (-4.299351935319e-03 4.416923874292e-04 -2.068230918005e-03)) ((5.038297357087e-01 4.153894134504e-01 -2.898207919052e-01) (-3.314928131161e-04 1.535192372966e-03 9.792241265978e-04))
0.38337             	((8.080531896090e-02 4.286647031048e-01 6.860759369905e-01) (-4.423812616472e-03 4.929050355100e-04 -2.147321876838e-03)) ((4.955429541198e-01 4.024344768583e-01 -2.864463000340e-01) (-3.180399636056e-04 1.595586408302e-03 9.830676526619e-04))
0.39337             	((7.726235265934e-02 4.211893084150e-01 6.564940867679e-01) (-4.532429504586e-03 5.319583860155e-04 -2.189908101896e-03)) ((4.843928089946e-01 3.862246481819e-01 -2.816782261362e-01) (-3.012118718883e-04 1.670593637745e-03 9.903927874245e-04))
0.40337             	((7.313527524045e-02 4.130727928021e-01 6.247373851983e-01) (-4.637952142786e-03 5.511065577204e-04 -2.206361439426e-03)) ((4.719513399727e-01 3.687404296792e-01 -2.761480096055e-01) (-2.897374603911e-04 1.761891191671e-03 1.009980409073e-03))
0.41337             	((6.863375122489e-02 4.043608156212e-01 5.921584077274e-01) (-4.740570922553e-03 5.629926519090e-04 -2.214191060942e-03)) ((4.586387133713e-01 3.507434163509e-01 -2.699776958948e-01) (-2.805827928150e-04 1.857935178154e-03 1.033597981963e-03))
0.42337             	((6.387325088151e-02 3.960257993659e-01 5.593457952033e-01) (-4.823845994679e-03 5.778601328730e-04 -2.221959403940e-03)) ((4.452993321630e-01 3.325786223038e-01 -2.638275944235e-01) (-2.693243205786e-04 1.941189078397e-03 1.049780461937e-03))
0.43337             	((5.890814468171e-02 3.886707848886e-01 5.263174502030e-01) (-4.891934750225e-03 5.964545763224e-04 -2.241463623115e-03)) ((4.323669452154e-01 3.142533167229e-01 -2.581271764539e-01) (-2.589815319931e-04 2.006262825903e-03 1.059141653089e-03))
0.44337             	((5.397433680907e-02 3.818522407485e-01 4.947143380877e-01) (-4.956817368706e-03 6.229625321169e-04 -2.275431929162e-03)) ((4.200277626350e-01 2.966926985563e-01 -2.527304860404e-01) (-2.474023225115e-04 2.059006871014e-03 1.062376484989e-03))
0.45337             	((4.926507307731e-02 3.752128534971e-01 4.660362079293e-01) (-5.024229069758e-03 6.615161859363e-04 -2.318287794878e-03)) ((4.084851158194e-01 2.807532748209e-01 -2.474959267116e-01) (-2.298657336992e-04 2.106525254354e-03 1.058318349576e-03))
0.46337             	((4.450777719188e-02 3.685496527813e-01 4.372232018253e-01) (-5.110779243774e-03 7.127212954063e-04 -2.382928488983e-03)) ((3.966820007613e-01 2.646575244318e-01 -2.422146047630e-01) (-2.096942512203e-04 2.152049879272e-03 1.051391525255e-03))
0.47337             	((3.975848263788e-02 3.631199842468e-01 4.084328271156e-01) (-5.228375000824e-03 7.758958987752e-04 -2.487170517683e-03)) ((3.855778126329e-01 2.484911389198e-01 -2.377244539353e-01) (-1.926702423586e-04 2.192869226573e-03 1.045533673918e-03))
0.48337             	((3.494188987551e-02 3.579980794982e-01 3.783426309368e-01) (-5.381150743387e-03 8.513736850634e-04 -2.618178848366e-03)) ((3.741144849896e-01 2.315065242540e-01 -2.334403195555e-01) (-1.746662055735e-04 2.240340959920e-03 1.041524390081e-03))
0.49337             	((3.006892943446e-02 3.517230097126e-01 3.462761502705e-01) (-5.572782283151e-03 9.417893656513e-04 -2.767980021420e-03)) ((3.610301540740e-01 2.132601953804e-01 -2.284332595490e-01) (-1.513148972834e-04 2.301982386761e-03 1.038491559582e-03))
0.50337             	((2.536737505388e-02 3.426793604563e-01 3.139318436856e-01) (-5.776180196915e-03 1.036936994863e-03 -2.919637444050e-03)) ((3.456467714769e-01 1.947080415972e-01 -2.217513018975e-01) (-1.249143769205e-04 2.368483517927e-03 1.034837573390e-03))
0.51337             	((2.109569796197e-02 3.305720713911e-01 2.838304970523e-01) (-5.995702758385e-03 1.123866383602e-03 -3.055802523047e-03)) ((3.284893382145e-01 1.773519526790e-01 -2.132857979158e-01) (-9.976950574987e-05 2.453866126807e-03 1.040746669304e-03))
0.52337             	((1.706354593532e-02 3.148448913997e-01 2.532293969453e-01) (-6.230475157426e-03 1.192720103364e-03 -3.155794606911e-03)) ((3.083219419923e-01 1.594785052192e-01 -2.025749267448e-01) (-7.701500339993e-05 2.570713396494e-03 1.063089587070e-03))
0.53337             	((1.347802122555e-02 2.952624106976e-01 2.245329005410e-01) (-6.464406624414e-03 1.221457810659e-03 -3.209470429740e-03)) ((2.856894356917e-01 1.425818579022e-01 -1.894857399135e-01) (-6.994877902903e-05 2.713455581418e-03 1.112460160744e-03))
0.54337             	((1.041059129042e-02 2.719330608534e-01 1.986773043337e-01) (-6.660353961714e-03 1.200363693661e-03 -3.205476379530e-03)) ((2.609652717774e-01 1.272096466765e-01 -1.740604057445e-01) (-8.252685173457e-05 2.862493183304e-03 1.184854371316e-03))
0.55337             	((8.449726155505e-03 2.465270390149e-01 1.880024812785e-01) (-6.787235942892e-03 1.133818646123e-03 -3.220218454208e-03)) ((2.391014927904e-01 1.213593241063e-01 -1.574879777788e-01) (-1.346368514295e-04 2.943490665314e-03 1.267849132723e-03))
0.56337             	((5.775149255495e-03 2.201343800721e-01 1.569185757966e-01) (-6.805836834432e-03 1.028514798690e-03 -3.109038522642e-03)) ((2.102847003365e-01 1.018961086398e-01 -1.398867772413e-01) (-1.780849811856e-04 3.028246426845e-03 1.345453174117e-03))
0.57337             	((4.036462932427e-03 1.969413754070e-01 1.413440472804e-01) (-6.739619483833e-03 9.173697730862e-04 -2.929606312077e-03)) ((1.883768562357e-01 9.237578787575e-02 -1.245091198584e-01) (-2.058015866813e-04 3.094987174383e-03 1.401910795009e-03))
0.58337             	((2.521228686302e-03 1.770947937091e-01 1.259349585681e-01) (-6.621300178350e-03 8.137691648803e-04 -2.728602586539e-03)) ((1.689427837480e-01 8.268662756254e-02 -1.111700277170e-01) (-2.218244154261e-04 3.136603940368e-03 1.437342916189e-03))
0.59337             	((1.304139336632e-03 1.612497448745e-01 1.142711372120e-01) (-6.475531790020e-03 7.208885717318e-04 -2.542544375888e-03)) ((1.535472611057e-01 7.533244896505e-02 -1.003740867138e-01) (-2.346914825043e-04 3.147077216343e-03 1.457109567056e-03))
0.60337             	((3.049267685401e-04 1.505453194309e-01 1.070838398956e-01) (-6.308825300099e-03 6.286930584440e-04 -2.382256277621e-03)) ((1.432490014116e-01 7.088411015370e-02 -9.283992272405e-02) (-2.549925020942e-04 3.125031124924e-03 1.470617961066e-03))
0.61337             	((-5.993091904197e-04 1.447171832441e-01 1.034829284978e-01) (-6.124270562812e-03 5.453417900047e-04 -2.253186692751e-03)) ((1.375737359731e-01 6.885187167083e-02 -8.839514614869e-02) (-2.782942894492e-04 3.070250749328e-03 1.473663047343e-03))
0.62337             	((-1.510554243080e-03 1.433663868125e-01 1.037216607084e-01) (-5.922505158322e-03 4.784127403021e-04 -2.175809913865e-03)) ((1.362894982706e-01 6.948821637675e-02 -8.680339690325e-02) (-3.051452204285e-04 2.969763994578e-03 1.461180335030e-03))
0.63337             	((-2.450936090028e-03 1.451377199995e-01 1.043535682769e-01) (-5.711060553962e-03 4.423712732141e-04 -2.172095977108e-03)) ((1.373543331814e-01 7.046669068143e-02 -8.720672219899e-02) (-3.315796233539e-04 2.814069948684e-03 1.425324607516e-03))
0.64337             	((-3.326067470869e-03 1.486634019691e-01 1.021916858905e-01) (-5.513540347929e-03 4.571038910094e-04 -2.252700280645e-03)) ((1.388024469534e-01 6.958177578899e-02 -8.877127830801e-02) (-3.464402101037e-04 2.612541824224e-03 1.359256951713e-03))
0.65337             	((-4.034073841916e-03 1.530374665423e-01 9.668708561946e-02) (-5.352003612252e-03 5.190183821296e-04 -2.409845914993e-03)) ((1.397962434675e-01 6.635869216841e-02 -9.093729143751e-02) (-3.503658422955e-04 2.385869127560e-03 1.271751948401e-03))
0.66337             	((-4.473106067620e-03 1.570683947900e-01 8.754644146748e-02) (-5.237024954017e-03 6.015207889397e-04 -2.610060635809e-03)) ((1.393748485384e-01 6.053389781839e-02 -9.298237120522e-02) (-3.529639101202e-04 2.163657491819e-03 1.184096324471e-03))
0.67337             	((-4.631307880216e-03 1.603736967085e-01 7.630776441500e-02) (-5.168348938755e-03 6.762814368408e-04 -2.817345560252e-03)) ((1.377228145879e-01 5.312959241896e-02 -9.466092411507e-02) (-3.640616809367e-04 1.969302329069e-03 1.115656565749e-03))
0.68337             	((-4.542916783811e-03 1.623971601209e-01 6.438474437275e-02) (-5.137340683725e-03 7.304986476544e-04 -3.008326373978e-03)) ((1.348733408677e-01 4.513437540987e-02 -9.563181409948e-02) (-3.857539302319e-04 1.811499466593e-03 1.072541811346e-03))
0.69337             	((-4.202608311036e-03 1.628234276461e-01 5.191193156181e-02) (-5.121966921193e-03 7.666269604750e-04 -3.171142168623e-03)) ((1.306625563422e-01 3.663768007324e-02 -9.570768986651e-02) (-4.124982671891e-04 1.681758307267e-03 1.046311180815e-03))
0.70337             	((-3.642157844573e-03 1.616210176972e-01 3.937493407684e-02) (-5.098920584105e-03 7.891288933695e-04 -3.298359867384e-03)) ((1.252384244463e-01 2.798915892286e-02 -9.486434744579e-02) (-4.386677997281e-04 1.568158541718e-03 1.026773298967e-03))
0.71337             	((-2.934642488032e-03 1.589543080443e-01 2.757262637884e-02) (-5.057397328850e-03 7.996881823169e-04 -3.389678509858e-03)) ((1.189833924215e-01 1.977314893649e-02 -9.318875927101e-02) (-4.628001772952e-04 1.463385032905e-03 1.009459664070e-03))
0.72337             	((-2.122704003853e-03 1.551171985861e-01 1.671914300702e-02) (-4.997450960754e-03 7.994976093236e-04 -3.451348967043e-03)) ((1.121944975442e-01 1.216157521479e-02 -9.085334553630e-02) (-4.857663636864e-04 1.363677214034e-03 9.935369516549e-04))
0.73337             	((-1.212190734955e-03 1.503138436785e-01 6.570945582595e-03) (-4.921480468587e-03 7.911808098797e-04 -3.488190939106e-03)) ((1.049650067243e-01 4.997179266385e-03 -8.799213414425e-02) (-5.070285876506e-04 1.267967887664e-03 9.779730847395e-04))
0.74337             	((-2.136440533810e-04 1.446953505417e-01 -3.006313857406e-03) (-4.830010865416e-03 7.775065244096e-04 -3.503312574002e-03)) ((9.738124663773e-02 -1.800098189497e-03 -8.470546397643e-02) (-5.254713996132e-04 1.174994469858e-03 9.610779130001e-04))
0.75337             	((8.613168230370e-04 1.382895327458e-01 -1.209320355949e-02) (-4.724537468487e-03 7.601837967227e-04 -3.500704459155e-03)) ((8.946052112016e-02 -8.275039889461e-03 -8.101933676322e-02) (-5.410112441161e-04 1.083471304979e-03 9.421289297159e-04))
0.76337             	((2.015004405443e-03 1.310895919907e-01 -2.086548911032e-02) (-4.608375850391e-03 7.393958914757e-04 -3.483272458333e-03)) ((8.116774884654e-02 -1.454667376509e-02 -7.693797060619e-02) (-5.543009979454e-04 9.939566514608e-04 9.219451917969e-04))
0.77337             	((3.270248250292e-03 1.230173560982e-01 -2.961837693359e-02) (-4.485185150535e-03 7.147108340214e-04 -3.451196279040e-03)) ((7.238444419297e-02 -2.082611099493e-02 -7.242523916947e-02) (-5.655904935365e-04 9.089454180730e-04 9.018737373960e-04))
0.78337             	((4.614596686707e-03 1.140361940248e-01 -3.832942849817e-02) (-4.357088883882e-03 6.857432847023e-04 -3.403106756522e-03)) ((6.311526154552e-02 -2.708991671663e-02 -6.745869354441e-02) (-5.746263011325e-04 8.308680545105e-04 8.828064094234e-04))
0.79337             	((6.017175798284e-03 1.042020309742e-01 -4.684929092723e-02) (-4.225723974461e-03 6.523874762752e-04 -3.338689170762e-03)) ((5.346347248943e-02 -3.322663182339e-02 -6.206217320800e-02) (-5.812752559331e-04 7.611414367337e-04 8.652896138660e-04))
0.80337             	((7.458552215679e-03 9.356631473821e-02 -5.513069263647e-02) (-4.092150515341e-03 6.146322343236e-04 -3.257832572814e-03)) ((4.349640644009e-02 -3.919919535270e-02 -5.625946559397e-02) (-5.854054727878e-04 7.006741126745e-04 8.496320418328e-04))
0.81337             	((8.928539324644e-03 8.218731340918e-02 -6.319352103232e-02) (-3.957323242841e-03 5.727133795244e-04 -3.161075387256e-03)) ((3.326355838378e-02 -4.501502870978e-02 -5.008064243756e-02) (-5.869269686851e-04 6.498751194339e-04 8.359726333849e-04))
0.82337             	((1.041641409267e-02 7.011962287232e-02 -7.105063687516e-02) (-3.822580044542e-03 5.271053347503e-04 -3.049479107271e-03)) ((2.281143288225e-02 -5.068039955029e-02 -4.355350469555e-02) (-5.857682500015e-04 6.090416779072e-04 8.244404225343e-04))
0.83337             	((1.188739481392e-02 5.754102373804e-02 -7.855644245278e-02) (-3.689188883345e-03 4.783143876547e-04 -2.924388060653e-03)) ((1.230742354234e-02 -5.608897322063e-02 -3.676629375126e-02) (-5.819355499841e-04 5.782261810005e-04 8.151021240618e-04))
0.84337             	((1.334394151132e-02 4.452200200136e-02 -8.580462698020e-02) (-3.558860268084e-03 4.264709726011e-04 -2.787327208036e-03)) ((1.775483770386e-03 -6.130571666188e-02 -2.975744168230e-02) (-5.757450177483e-04 5.576681209516e-04 8.083972282599e-04))
0.85337             	((1.476187338667e-02 3.120598489394e-02 -9.272086737072e-02) (-3.432369492876e-03 3.719415719215e-04 -2.639502807426e-03)) ((-8.669595093716e-03 -6.627380472579e-02 -2.259619100515e-02) (-5.672754065718e-04 5.470769659044e-04 8.043285164072e-04))
0.86337             	((1.615437083325e-02 1.768773968391e-02 -9.945139146011e-02) (-3.311501359829e-03 3.153049910622e-04 -2.482957918268e-03)) ((-1.901341178449e-02 -7.109968812527e-02 -1.533429271171e-02) (-5.567504889758e-04 5.463560333817e-04 8.030919777412e-04))
0.87337             	((1.749462681553e-02 4.078023072253e-03 -1.058927839638e-01) (-3.197193258638e-03 2.563458782766e-04 -2.319151031809e-03)) ((-2.916107337295e-02 -7.570736798266e-02 -8.021829751294e-03) (-5.447190550306e-04 5.552040735479e-04 8.051249893774e-04))
0.88337             	((1.876964706095e-02 -9.446939499795e-03 -1.120237594300e-01) (-3.091109091934e-03 1.950401887662e-04 -2.149396622364e-03)) ((-3.900781815675e-02 -8.008111765577e-02 -7.485256964874e-04) (-5.315780993371e-04 5.738555743318e-04 8.109812537785e-04))
0.89337             	((2.000439774197e-02 -2.278377309759e-02 -1.180469208877e-01) (-2.994293024030e-03 1.321971350556e-04 -1.975776074278e-03)) ((-4.856328356692e-02 -8.436813043720e-02 6.426325742912e-03) (-5.174640641503e-04 6.016288007728e-04 8.204939103236e-04))
0.90337             	((2.115181962279e-02 -3.571641289705e-02 -1.237278928834e-01) (-2.906620542572e-03 6.832650671008e-05 -1.800117431359e-03)) ((-5.764448121935e-02 -8.840249027004e-02 1.339960966595e-02) (-5.026386347835e-04 6.373429285990e-04 8.333204717863e-04))
0.91337             	((2.214394397563e-02 -4.788259675027e-02 -1.287194663945e-01) (-2.827491661541e-03 3.914775222931e-06 -1.623103659956e-03)) ((-6.595590415595e-02 -9.193670225562e-02 1.999281219523e-02) (-4.870497935395e-04 6.802300934110e-04 8.489990530604e-04))
0.92337             	((2.306192938654e-02 -5.932982252796e-02 -1.335313992874e-01) (-2.757792053799e-03 -6.069478507219e-05 -1.445996034671e-03)) ((-7.369913345823e-02 -9.533744222153e-02 2.621395075141e-02) (-4.709231140266e-04 7.300442882916e-04 8.676312025524e-04))
0.93337             	((2.383561640972e-02 -6.979161733502e-02 -1.377911150750e-01) (-2.698344716290e-03 -1.247533325200e-04 -1.267583146543e-03)) ((-8.063304847034e-02 -9.834269669485e-02 3.194013505318e-02) (-4.535223666878e-04 7.879638819257e-04 8.890627561291e-04))
0.94337             	((2.434649513808e-02 -7.909631647984e-02 -1.408417510449e-01) (-2.647791602157e-03 -1.876687678058e-04 -1.090798324510e-03)) ((-8.648799156288e-02 -1.004810981317e-01 3.711241696961e-02) (-4.354456879486e-04 8.513153400744e-04 9.125462125084e-04))
0.95337             	((2.472832721004e-02 -8.707787133733e-02 -1.434668920461e-01) (-2.607530648064e-03 -2.476735075560e-04 -9.153841850737e-04)) ((-9.142983724459e-02 -1.023169201971e-01 4.159846838957e-02) (-4.157063720149e-04 9.210602892013e-04 9.375172085899e-04))
0.96337             	((2.490505314129e-02 -9.339187741991e-02 -1.452362608680e-01) (-2.579070766135e-03 -3.044295251054e-04 -7.417284634610e-04)) ((-9.516152862903e-02 -1.035452591058e-01 4.521743592744e-02) (-3.943349710773e-04 9.977452186288e-04 9.642979595574e-04))
0.97337             	((2.487450621706e-02 -9.789393314391e-02 -1.461365555675e-01) (-2.561369572358e-03 -3.538694932229e-04 -5.674074666364e-04)) ((-9.762492706193e-02 -1.041568106496e-01 4.788851932525e-02) (-3.684275997117e-04 1.082238237036e-03 9.900822735477e-04))
0.98337             	((2.451032831977e-02 -1.002685446380e-01 -1.454049331247e-01) (-2.546019283108e-03 -3.876606558780e-04 -3.873099303362e-04)) ((-9.844016376397e-02 -1.036196514333e-01 4.946555161374e-02) (-3.319284394526e-04 1.173093327648e-03 1.007124961593e-03))
0.99337             	((2.382996133550e-02 -1.007830555160e-01 -1.430641487946e-01) (-2.515499523794e-03 -3.977610195817e-04 -1.965755527975e-04)) ((-9.777967983718e-02 -1.019561285238e-01 5.008698892597e-02) (-2.790585931362e-04 1.263599660243e-03 1.004864021576e-03))
1.00337             	((2.271044060335e-02 -9.958830674750e-02 -1.382676065941e-01) (-2.462651582616e-03 -3.868888446566e-04 2.090172968140e-06)) ((-9.549098788673e-02 -9.856763288113e-02 4.988633855916e-02) (-2.122977291758e-04 1.348463258866e-03 9.825265379670e-04))
1.01337             	((2.102854864772e-02 -9.648115883727e-02 -1.301318424828e-01) (-2.393477644689e-03 -3.538963371315e-04 1.998649703732e-04)) ((-9.120618481700e-02 -9.280259206445e-02 4.876083025321e-02) (-1.337959813610e-04 1.425418611619e-03 9.412437779001e-04))
1.02337             	((1.886059352403e-02 -9.149140487015e-02 -1.188791696962e-01) (-2.321416131780e-03 -3.141900137201e-04 4.018301077519e-04)) ((-8.501479411537e-02 -8.484062777835e-02 4.670099358313e-02) (-5.053813371305e-05 1.504717553782e-03 8.946238885295e-04))
1.03337             	((1.626794970391e-02 -8.465380462299e-02 -1.046515020302e-01) (-2.252059972854e-03 -2.743973129846e-04 6.079803287274e-04)) ((-7.697911684558e-02 -7.476071072574e-02 4.369089555452e-02) (3.386918971650e-05 1.589368830112e-03 8.484366865201e-04))
1.04337             	((1.318537566141e-02 -7.518334806169e-02 -8.673039266585e-02) (-2.186883909678e-03 -2.403481847111e-04 8.213552665983e-04)) ((-6.645830757219e-02 -6.205069976295e-02 3.928784445573e-02) (1.171760941766e-04 1.682192998809e-03 8.069238924280e-04))
1.05337             	((9.691707488547e-03 -6.322647620733e-02 -6.524762982328e-02) (-2.127904873618e-03 -2.161143259114e-04 1.045620828654e-03)) ((-5.356176039240e-02 -4.680460680608e-02 3.352787357218e-02) (1.983111931426e-04 1.787032506553e-03 7.732040762221e-04))
1.06337             	((5.889319609984e-03 -4.908483554441e-02 -4.046856491968e-02) (-2.062464977182e-03 -2.091898995316e-04 1.271676474244e-03)) ((-3.851541951983e-02 -2.920685811074e-02 2.651818458014e-02) (2.704970267190e-04 1.892282436685e-03 7.479726522074e-04))
1.07337             	((1.888135857779e-03 -3.356068612796e-02 -1.272093504286e-02) (-1.955559147706e-03 -2.227392975682e-04 1.468898642714e-03)) ((-2.183104019532e-02 -9.446160162359e-03 1.865558292714e-02) (3.227610514708e-04 1.960797345326e-03 7.228063550590e-04))