# Forces            
# CofR              : (1.500000000000e+00 0.000000000000e+00 5.000000000000e-01)
# Time              forces(pressure viscous)	moments(pressure viscous)
0                   	((0.000000000000e+00 0.000000000000e+00 0.000000000000e+00) (-4.116437759344e-01 2.332256356375e-06 4.289253506091e-05)) ((0.000000000000e+00 0.000000000000e+00 0.000000000000e+00) (4.804868095673e-06 -1.788887615903e-01 6.609913591194e-02))
0.00667             	((-1.311199342762e+02 -1.543264818733e-01 -3.290026884718e+02) (-3.866195553719e-01 -8.883839858792e-02 -1.552329665781e-02)) ((-5.247260960207e+01 -5.054165408187e+02 1.218063584125e+01) (3.593232763955e-02 -1.883153638811e-01 1.825712866634e-01))
0.01334             	((7.295390220073e+01 6.870134343160e-02 2.269404211375e+02) (-2.932824166334e-01 -6.461864656372e-02 -4.253582728949e-03)) ((3.604726581538e+01 3.418923138639e+02 -7.489221063326e+00) (2.724371288809e-02 -1.325097155994e-01 1.348217506614e-01))
0.02001             	((-1.230397583862e+01 -1.080906180489e-02 -2.438550614744e+01) (-2.749943373779e-01 -6.396862831594e-02 -1.126181399237e-03)) ((-3.909227786279e+00 -3.883189085891e+01 1.334460563927e+00) (2.750842083834e-02 -1.204460595726e-01 1.310155081725e-01))
0.02668             	((-4.556203329717e+00 -9.713218110532e-03 5.108368829638e+00) (-2.854540280671e-01 -6.896102542498e-02 8.349109970541e-04)) ((7.875088343669e-01 5.096136338123e+00 2.745879014465e-01) (3.001311423390e-02 -1.223911246217e-01 1.395382955440e-01))
0.03335             	((5.146526139318e+00 2.386468780436e-03 3.900997929171e+01) (-2.794106056238e-01 -6.678157762350e-02 5.146306040314e-03)) ((6.201454345061e+00 5.555703712244e+01 -6.025865061769e-01) (2.980117904261e-02 -1.140350874196e-01 1.356899037586e-01))
0.04002             	((-1.068753602110e+00 -4.184162279148e-03 1.219507302877e+01) (-2.771162025473e-01 -6.675513513659e-02 7.917371542174e-03)) ((1.953324833645e+00 1.607778942622e+01 1.874522339757e-02) (3.026683979877e-02 -1.093528961174e-01 1.353511737313e-01))
0.04669             	((1.409970760102e-01 -3.443227971126e-03 1.939609825119e+01) (-2.758502012041e-01 -6.686887856447e-02 1.073510234182e-02)) ((3.117171345472e+00 2.644216652747e+01 -1.276285923808e-01) (3.079398735785e-02 -1.050167206567e-01 1.353596700396e-01))
0.05336             	((7.348634237811e-01 -2.761607936868e-03 2.031018566577e+01) (-2.735005265992e-01 -6.651455238981e-02 1.359117090690e-02)) ((3.279646323132e+00 2.790313470638e+01 -1.833141554117e-01) (3.111955839613e-02 -1.001300251916e-01 1.345454089858e-01))
0.06003             	((3.586940730117e-01 -3.281796902728e-03 1.785199276179e+01) (-2.717000771585e-01 -6.637046974695e-02 1.613495121436e-02)) ((2.906033498754e+00 2.431855327798e+01 -1.513875944985e-01) (3.147869237264e-02 -9.587551328604e-02 1.340943634944e-01))
0.0667              	((5.951783106605e-01 -3.189963945907e-03 1.929337348507e+01) (-2.700491494878e-01 -6.622508821218e-02 1.871683749698e-02)) ((3.152197947255e+00 2.635137360515e+01 -1.843530518746e-01) (3.183821898840e-02 -9.160965414738e-02 1.336566408014e-01))
0.07337             	((7.156238328601e-01 -3.175457854898e-03 1.814582608607e+01) (-2.684688348846e-01 -6.607950477676e-02 2.114285794158e-02)) ((2.985895943925e+00 2.478122692735e+01 -2.018718772219e-01) (3.216599133106e-02 -8.755890190670e-02 1.332220443698e-01))
0.08337             	((8.536174196620e-01 -3.266312886925e-03 1.778478688490e+01) (-2.652381339526e-01 -6.588239186054e-02 2.485704376302e-02)) ((2.956471435042e+00 2.426798155835e+01 -2.281992359050e-01) (3.266026151301e-02 -8.094370909538e-02 1.324504651114e-01))
0.09337             	((1.084383737772e+00 -3.281016121099e-03 1.771249825627e+01) (-2.635391392735e-01 -6.583613782317e-02 2.837664600627e-02)) ((2.966344726675e+00 2.419888276211e+01 -2.668558228269e-01) (3.317573521186e-02 -7.520608346085e-02 1.321212671574e-01))
0.10337             	((1.276219021481e+00 -3.302602793214e-03 1.695401417282e+01) (-2.619956099887e-01 -6.582474181944e-02 3.159828365603e-02)) ((2.866049207703e+00 2.316874681008e+01 -3.000899048741e-01) (3.364185248010e-02 -6.987780209187e-02 1.318517785283e-01))
0.11337             	((1.494310554133e+00 -3.328850284604e-03 1.685749068032e+01) (-2.605145126323e-01 -6.584742038128e-02 3.471455949065e-02)) ((2.872298333478e+00 2.305519868122e+01 -3.389523252938e-01) (3.409049193476e-02 -6.466494795188e-02 1.316254121873e-01))
0.12337             	((1.717623544447e+00 -3.345081857035e-03 1.611464215094e+01) (-2.590089722463e-01 -6.588769502993e-02 3.766499161330e-02)) ((2.774921157147e+00 2.205761333882e+01 -3.775693398590e-01) (3.450349992799e-02 -5.961349997274e-02 1.314072742650e-01))
0.13337             	((1.959422617939e+00 -3.356941781987e-03 1.594310913054e+01) (-2.574176857272e-01 -6.592417939612e-02 4.053679260031e-02)) ((2.767369414379e+00 2.185116722546e+01 -4.200291618670e-01) (3.488627570078e-02 -5.458424803804e-02 1.311599946283e-01))
0.14337             	((2.201226995819e+00 -3.364853411306e-03 1.547375169864e+01) (-2.556781799807e-01 -6.593820751645e-02 4.330347169614e-02)) ((2.711650227244e+00 2.123598040262e+01 -4.620572696082e-01) (3.522625331865e-02 -4.958841244137e-02 1.308495646068e-01))
0.15337             	((2.449960855361e+00 -3.365557698585e-03 1.510898466021e+01) (-2.537339818464e-01 -6.591223965113e-02 4.597619858190e-02)) ((2.671517257161e+00 2.076765321691e+01 -5.050354993138e-01) (3.551843745072e-02 -4.459211009966e-02 1.304434913095e-01))
0.16337             	((2.706937333825e+00 -3.364126026855e-03 1.488764151934e+01) (-2.515425225435e-01 -6.582774463862e-02 4.858440619337e-02)) ((2.653248188741e+00 2.050076045583e+01 -5.492089754124e-01) (3.576084896899e-02 -3.954258286004e-02 1.299104605470e-01))
0.17337             	((2.962790514149e+00 -3.355616768080e-03 1.457832852463e+01) (-2.490687818916e-01 -6.566436420641e-02 5.109534401379e-02)) ((2.620117657173e+00 2.011278870979e+01 -5.926535720093e-01) (3.594026910222e-02 -3.447338576290e-02 1.292186069597e-01))
0.18337             	((3.229660398708e+00 -3.338808935090e-03 1.448214195911e+01) (-2.462717335018e-01 -6.540138740172e-02 5.352650490601e-02)) ((2.619864486694e+00 2.002263933531e+01 -6.376424414277e-01) (3.605247132339e-02 -2.934976226577e-02 1.283342903937e-01))
0.19337             	((3.497679002154e+00 -3.312544049682e-03 1.437845783560e+01) (-2.431048273163e-01 -6.501888122287e-02 5.585210846240e-02)) ((2.617696304525e+00 1.992338692510e+01 -6.823173909581e-01) (3.608654904362e-02 -2.419249195694e-02 1.272242841496e-01))
0.20337             	((3.773830778605e+00 -3.273594308984e-03 1.441411793985e+01) (-2.395234187649e-01 -6.450040447277e-02 5.807692304042e-02)) ((2.636879741347e+00 2.001926323453e+01 -7.279687675887e-01) (3.603864891298e-02 -1.898469352343e-02 1.258603330341e-01))
0.21337             	((4.056702151425e+00 -3.222538884611e-03 1.454654978474e+01) (-2.354915401946e-01 -6.383362273007e-02 6.019656847825e-02)) ((2.670679380558e+00 2.025102066801e+01 -7.742894972323e-01) (3.590537757625e-02 -1.372524389686e-02 1.242212373710e-01))
0.22337             	((4.347072450535e+00 -3.156843890837e-03 1.476521119469e+01) (-2.309791665958e-01 -6.301140937805e-02 6.220238507412e-02)) ((2.717407808648e+00 2.060420533391e+01 -8.213862568396e-01) (3.568484001572e-02 -8.422117232244e-03 1.222934024055e-01))
0.23337             	((4.648088776056e+00 -3.075587074931e-03 1.512101629684e+01) (-2.259664492618e-01 -6.203033837696e-02 6.409084521090e-02)) ((2.785179030483e+00 2.114974308824e+01 -8.698664895628e-01) (3.537768014570e-02 -3.080698583234e-03 1.200695153503e-01))
0.24337             	((4.957301583601e+00 -2.978138438573e-03 1.555882209461e+01) (-2.204397591454e-01 -6.088866437017e-02 6.584681303926e-02)) ((2.865344033462e+00 2.181066085414e+01 -9.193339690024e-01) (3.498337941728e-02 2.275218470045e-03 1.175456669030e-01))
0.25337             	((5.279705868680e+00 -2.864482740986e-03 1.612505682003e+01) (-2.143842227491e-01 -5.958712412051e-02 6.745850625791e-02)) ((2.965307901314e+00 2.265252217230e+01 -9.706723538025e-01) (3.450325630339e-02 7.626301461263e-03 1.147212581819e-01))
0.26337             	((5.612317058300e+00 -2.736273524886e-03 1.678610951413e+01) (-2.078061425950e-01 -5.813395739346e-02 6.891182898750e-02)) ((3.079754030944e+00 2.362791089151e+01 -1.023485213366e+00) (3.394126597318e-02 1.294186487321e-02 1.116094273814e-01))
0.27337             	((5.955598440150e+00 -2.593612429455e-03 1.754128356546e+01) (-2.007205515371e-01 -5.653748743357e-02 7.019216590909e-02)) ((3.208556244858e+00 2.473608339315e+01 -1.077893635514e+00) (3.330134792017e-02 1.818727386054e-02 1.082254156242e-01))
0.28337             	((6.307976846191e+00 -2.438948916138e-03 1.837687066202e+01) (-1.931456180711e-01 -5.481093328313e-02 7.128376115552e-02)) ((3.349638539736e+00 2.595758844111e+01 -1.133773718056e+00) (3.258904134527e-02 2.332540291795e-02 1.045917830334e-01))
0.29337             	((6.666756046549e+00 -2.275411327472e-03 1.927251649038e+01) (-1.850872766588e-01 -5.296397820585e-02 7.216729413738e-02)) ((3.499681013307e+00 2.726407035799e+01 -1.190722393084e+00) (3.180773361399e-02 2.831968777681e-02 1.007246486437e-01))
0.30337             	((7.029934002817e+00 -2.105326414013e-03 2.022097931999e+01) (-1.765490590968e-01 -5.100317094772e-02 7.282595767284e-02)) ((3.657467906924e+00 2.864556017593e+01 -1.248509451393e+00) (3.095989110663e-02 3.313738631910e-02 9.663571930136e-02))
0.31337             	((7.393090096945e+00 -1.928544057104e-03 2.119693902992e+01) (-1.675527063060e-01 -4.893297471774e-02 7.323743690234e-02)) ((3.818832425333e+00 3.006677617814e+01 -1.306442138247e+00) (3.004635605162e-02 3.773229551504e-02 9.233637856170e-02))
0.32337             	((7.749606725754e+00 -1.750440107567e-03 2.217421669208e+01) (-1.581296593556e-01 -4.675543527122e-02 7.338674009176e-02)) ((3.979556761616e+00 3.149047664556e+01 -1.363556925662e+00) (2.906813086333e-02 4.206426569142e-02 8.783615797910e-02))
0.33337             	((8.093071872164e+00 -1.574642688413e-03 2.312741532689e+01) (-1.483217342373e-01 -4.447725219528e-02 7.325817535748e-02)) ((4.135384084761e+00 3.288105361512e+01 -1.418813793611e+00) (2.802764916259e-02 4.608966744947e-02 8.315098273420e-02))
0.34337             	((8.416598850604e+00 -1.408034396144e-03 2.402924802994e+01) (-1.381801576257e-01 -4.210927371249e-02 7.283331233206e-02)) ((4.281662705208e+00 3.420023116000e+01 -1.471088539778e+00) (2.692810365488e-02 4.975937604920e-02 7.830338188832e-02))
0.35337             	((8.712388083305e+00 -1.258117035134e-03 2.485558826937e+01) (-1.277625341490e-01 -3.966543221514e-02 7.211020306618e-02)) ((4.414476954408e+00 3.541386161524e+01 -1.519119342159e+00) (2.577573687506e-02 5.304427930349e-02 7.332044487276e-02))
0.36337             	((8.971790590070e+00 -1.135183002639e-03 2.557581870875e+01) (-1.171589940128e-01 -3.716122778152e-02 7.108841980862e-02)) ((4.528712345259e+00 3.647835244634e+01 -1.561490568653e+00) (2.457767368649e-02 5.590833865656e-02 6.823600089911e-02))
0.37337             	((9.187198945953e+00 -1.046651956184e-03 2.616442569014e+01) (-1.064485056598e-01 -3.461843727218e-02 6.979034326193e-02)) ((4.620159008014e+00 3.735755526115e+01 -1.596922636597e+00) (2.334565200598e-02 5.834986938947e-02 6.308976306128e-02))
0.38337             	((9.349160848988e+00 -9.988090378238e-04 2.659713670448e+01) (-9.564767398639e-02 -3.203749452944e-02 6.819787819413e-02)) ((4.684898259635e+00 3.801635850299e+01 -1.623814208359e+00) (2.207806346838e-02 6.033753036426e-02 5.788389396920e-02))
0.39337             	((9.450599700530e+00 -1.003970408893e-03 2.685240291359e+01) (-8.481227215578e-02 -2.943615014367e-02 6.633178647086e-02)) ((4.719518907468e+00 3.842357469634e+01 -1.640953923320e+00) (2.078468407047e-02 6.187613415519e-02 5.264668430128e-02))
0.40337             	((9.483790267818e+00 -1.069382879461e-03 2.690885230745e+01) (-7.399066835038e-02 -2.678929971491e-02 6.419749187036e-02)) ((4.720656877689e+00 3.854794615729e+01 -1.647016813768e+00) (1.945995026004e-02 6.295115947154e-02 4.735212362545e-02))
0.41337             	((9.443032425692e+00 -1.174330477742e-03 2.674930158359e+01) (-6.321331353275e-02 -2.411184211894e-02 6.179403840564e-02)) ((4.685740560439e+00 3.836377172156e+01 -1.641003304996e+00) (1.810981821713e-02 6.354560197848e-02 4.202097283925e-02))
0.42337             	((9.322641740947e+00 -1.318803212174e-03 2.635997597979e+01) (-5.256454486892e-02 -2.142723079239e-02 5.912117110798e-02)) ((4.612720211424e+00 3.784977240082e+01 -1.621875422480e+00) (1.674273442322e-02 6.362872494087e-02 3.669509975031e-02))
0.43337             	((9.119400419752e+00 -1.496127097629e-03 2.573182826008e+01) (-4.217661139057e-02 -1.879509718377e-02 5.620491105832e-02)) ((4.500428237744e+00 3.699070514954e+01 -1.589010666063e+00) (1.538051383110e-02 6.319154605477e-02 3.147103017932e-02))
0.44337             	((8.831814420666e+00 -1.721080257276e-03 2.485911879288e+01) (-3.217531728209e-02 -1.625402936750e-02 5.304803805866e-02)) ((4.348305830679e+00 3.577559870996e+01 -1.542049733070e+00) (1.403365780457e-02 6.220158762482e-02 2.641882524975e-02))
0.45337             	((8.464935410650e+00 -2.010755426517e-03 2.374658355384e+01) (-2.271580187174e-02 -1.387158666805e-02 4.969506413108e-02)) ((4.157540875961e+00 3.420855019979e+01 -1.481756585049e+00) (1.272570764727e-02 6.067397432566e-02 2.165136122610e-02))
0.46337             	((8.025062936088e+00 -2.352141030630e-03 2.239170629337e+01) (-1.397472599507e-02 -1.167914698213e-02 4.619390158388e-02)) ((3.928103260796e+00 3.228409613885e+01 -1.409032434268e+00) (1.147004081377e-02 5.862852778674e-02 1.724046912256e-02))
0.47337             	((7.519352835894e+00 -2.704265232078e-03 2.077386904940e+01) (-6.105853746298e-03 -9.695478519129e-03 4.260694908903e-02)) ((3.656888509843e+00 2.997217813103e+01 -1.325024334701e+00) (1.027800244680e-02 5.611464475636e-02 1.323978678869e-02))
0.48337             	((6.957419906911e+00 -3.027853526705e-03 1.890052740477e+01) (7.951689655190e-04 -7.890629459321e-03 3.896151073459e-02)) ((3.345623765936e+00 2.728198507496e+01 -1.231333873967e+00) (9.143275573589e-03 5.315714638352e-02 9.632491552099e-03))
0.49337             	((6.346744724162e+00 -3.294570695499e-03 1.678147824766e+01) (6.623478500089e-03 -6.258245309459e-03 3.526411982451e-02)) ((2.995911417862e+00 2.422421019624e+01 -1.129076721296e+00) (8.061922097557e-03 4.975649161740e-02 6.432975614618e-03))
0.50337             	((5.704494600032e+00 -3.512104016523e-03 1.441604909167e+01) (1.129753503916e-02 -4.806244046477e-03 3.162547263294e-02)) ((2.607576732938e+00 2.079780275651e+01 -1.021072998278e+00) (7.051369181318e-03 4.605486614275e-02 3.671917766614e-03))
0.51337             	((5.039714973919e+00 -3.696050211577e-03 1.183292702959e+01) (1.483441777560e-02 -3.541313665533e-03 2.810331010193e-02)) ((2.184959203666e+00 1.704124830712e+01 -9.086096001635e-01) (6.119699056455e-03 4.215371445194e-02 1.359751058524e-03))
0.52337             	((4.376085174419e+00 -3.848450582949e-03 9.052318719405e+00) (1.727117080793e-02 -2.458091905065e-03 2.470376390902e-02)) ((1.731228295187e+00 1.298277413451e+01 -7.956174498029e-01) (5.262830095403e-03 3.809314163759e-02 -5.133177862696e-04))
0.53337             	((3.726526126880e+00 -3.977318486955e-03 6.101795518215e+00) (1.863787944015e-02 -1.554724008213e-03 2.140313132185e-02)) ((1.250637824529e+00 8.661036749139e+00 -6.841968578947e-01) (4.472721098304e-03 3.387231701577e-02 -1.951681329143e-03))
0.54337             	((3.100837016359e+00 -4.059613335087e-03 3.012031708587e+00) (1.899017528549e-02 -8.257043933178e-04 1.818393507164e-02)) ((7.477601024984e-01 4.119165501201e+00 -5.760326405213e-01) (3.740894266070e-03 2.950278165279e-02 -2.970916030627e-03))
0.55337             	((2.519670182952e+00 -4.117629946300e-03 -9.042335089794e-02) (1.836746065215e-02 -2.115506743938e-04 1.504623547223e-02)) ((2.425911783995e-01 -4.585953751764e-01 -4.751049614302e-01) (3.051959561737e-03 2.501327987830e-02 -3.656742269724e-03))
0.56337             	((1.972625198220e+00 -4.063318345892e-03 -3.380777787997e+00) (1.684866819451e-02 2.596216761052e-04 1.198324020387e-02)) ((-2.939120785163e-01 -5.334546386897e+00 -3.781355019884e-01) (2.408103597902e-03 2.042868663653e-02 -3.982452749788e-03))
0.57337             	((1.515535424737e+00 -4.023359763062e-03 -6.558971252435e+00) (1.450962723893e-02 5.893568230499e-04 8.974836905407e-03)) ((-8.136419129817e-01 -1.006109388693e+01 -2.967322251113e-01) (1.801888882556e-03 1.575451550268e-02 -3.963667025891e-03))
0.58337             	((1.123892309290e+00 -3.938988799296e-03 -9.654911072307e+00) (1.137792824497e-02 7.926177069083e-04 6.010954876143e-03)) ((-1.321806562171e+00 -1.468271060503e+01 -2.258916278164e-01) (1.225047247042e-03 1.099815391836e-02 -3.627340667723e-03))
0.59337             	((8.050456832014e-01 -3.823185192510e-03 -1.266519074609e+01) (7.462350757961e-03 8.669761324330e-04 3.104329602730e-03)) ((-1.817499754500e+00 -1.919237533800e+01 -1.672794497369e-01) (6.764424743144e-04 6.196804275261e-03 -2.975529178536e-03))
0.60337             	((5.614186661309e-01 -3.675835277643e-03 -1.559607708740e+01) (2.788897878708e-03 7.994553017708e-04 2.143820299456e-04)) ((-2.302355222067e+00 -2.359752192486e+01 -1.216071185406e-01) (1.484383951664e-04 1.317466552189e-03 -1.997528269246e-03))
0.61337             	((3.958882429484e-01 -3.514412477421e-03 -1.839451308302e+01) (-2.692833550538e-03 5.550542918761e-04 -2.685972754379e-03)) ((-2.767771356657e+00 -2.781766083487e+01 -8.977672334234e-02) (-3.592764964432e-04 -3.673528899685e-03 -6.388661620249e-04))
0.62337             	((3.130658449610e-01 -3.314595862504e-03 -2.105208769545e+01) (-9.025490988996e-03 1.157346626800e-04 -5.622984987122e-03)) ((-3.213269375765e+00 -3.183527088251e+01 -7.280634932716e-02) (-8.506438367731e-04 -8.807593158990e-03 1.132826999156e-03))
0.63337             	((3.127616083603e-01 -3.110759500136e-03 -2.358724846724e+01) (-1.617431748059e-02 -5.464622168996e-04 -8.676506046572e-03)) ((-3.640943403086e+00 -3.567773227165e+01 -7.080642459905e-02) (-1.337035800925e-03 -1.418163261427e-02 3.350968972701e-03))
0.64337             	((3.924223754672e-01 -2.912240003260e-03 -2.597888915223e+01) (-2.407170433392e-02 -1.466889137290e-03 -1.194419431831e-02)) ((-4.047149489363e+00 -3.930970646523e+01 -8.392167632861e-02) (-1.831051562564e-03 -1.992356591722e-02 6.054053641624e-03))
0.65337             	((5.527943376775e-01 -2.737187775379e-03 -2.821059430345e+01) (-3.263363734172e-02 -2.637236818083e-03 -1.553633808574e-02)) ((-4.429949162810e+00 -4.270342250365e+01 -1.122938400703e-01) (-2.353583680517e-03 -2.619015395825e-02 9.220364852249e-03))
0.66337             	((7.958323270357e-01 -2.589928170309e-03 -3.026345367815e+01) (-4.178944486038e-02 -3.982341612304e-03 -1.949231728394e-02)) ((-4.786643469616e+00 -4.582709323746e+01 -1.563778283257e-01) (-2.925780559378e-03 -3.303080901454e-02 1.274341672225e-02))
0.67337             	((1.116520983197e+00 -2.475177742143e-03 -3.219210258844e+01) (-5.143004413203e-02 -5.443844608462e-03 -2.380813101888e-02)) ((-5.125345200095e+00 -4.876238444666e+01 -2.153002855396e-01) (-3.558924176950e-03 -4.042475098966e-02 1.653101749237e-02))
0.68337             	((1.512040841481e+00 -2.420501160747e-03 -3.399822760400e+01) (-6.145716957200e-02 -6.951426054453e-03 -2.845517123612e-02)) ((-5.445279988147e+00 -5.150950339526e+01 -2.885306504442e-01) (-4.256625943177e-03 -4.832657735485e-02 2.046627970359e-02))
0.69337             	((1.978353799639e+00 -2.411880095745e-03 -3.565179183424e+01) (-7.176949085996e-02 -8.408821562116e-03 -3.337861130982e-02)) ((-5.742176354907e+00 -5.401791395550e+01 -3.754047574652e-01) (-5.019255637889e-03 -5.665627055145e-02 2.439411182953e-02))
0.70337             	((2.508166308442e+00 -2.411496613272e-03 -3.715695789151e+01) (-8.222899093909e-02 -9.710743153223e-03 -3.854678230320e-02)) ((-6.016621623091e+00 -5.629126259289e+01 -4.744731112670e-01) (-5.851538452861e-03 -6.536360236028e-02 2.814214703510e-02))
0.71337             	((3.099748664911e+00 -2.422069608020e-03 -3.855136743602e+01) (-9.267502719851e-02 -1.079602444037e-02 -4.394049878805e-02)) ((-6.273982574364e+00 -5.838670350552e+01 -5.851819780487e-01) (-6.753341952955e-03 -7.441792145621e-02 3.159109487831e-02))
0.72337             	((3.743613916848e+00 -2.436819602129e-03 -3.982182546189e+01) (-1.029967500903e-01 -1.167508946473e-02 -4.948641298622e-02)) ((-6.512744666849e+00 -6.028150324841e+01 -7.056684861946e-01) (-7.705617868230e-03 -8.371458348505e-02 3.472708584763e-02))
0.73337             	((4.427996829266e+00 -2.473213594789e-03 -4.089215666469e+01) (-1.131171483996e-01 -1.240383292923e-02 -5.504626554470e-02)) ((-6.720571964401e+00 -6.185819268502e+01 -8.338499385108e-01) (-8.675290072884e-03 -9.305466117685e-02 3.760604452216e-02))
0.74337             	((5.154482693450e+00 -2.485659199895e-03 -4.183206786353e+01) (-1.229647033696e-01 -1.304577259243e-02 -6.051965064451e-02)) ((-6.907295339970e+00 -6.321889617947e+01 -9.692733821882e-01) (-9.633964046283e-03 -1.022944793618e-01 4.029940160174e-02))
0.75337             	((5.916897218977e+00 -2.452283518021e-03 -4.266805605294e+01) (-1.324286459760e-01 -1.361039782331e-02 -6.597479542379e-02)) ((-7.078889002980e+00 -6.440552520240e+01 -1.111042638129e+00) (-1.058879293342e-02 -1.115355465827e-01 4.279813549793e-02))
0.76337             	((6.718200776241e+00 -2.404296114493e-03 -4.350446457534e+01) (-1.413142314443e-01 -1.411448175072e-02 -7.151393832400e-02)) ((-7.249675203056e+00 -6.558188099831e+01 -1.258991781919e+00) (-1.155370996179e-02 -1.209307056531e-01 4.508699522617e-02))
0.77337             	((7.502841184821e+00 -2.357462298182e-03 -4.416188903112e+01) (-1.495294243933e-01 -1.459038967958e-02 -7.707476445805e-02)) ((-7.392221339417e+00 -6.647471636932e+01 -1.403911808565e+00) (-1.250783468375e-02 -1.303945833064e-01 4.719735835604e-02))
0.78337             	((8.269947605451e+00 -2.352254458036e-03 -4.469135482399e+01) (-1.570449096163e-01 -1.510939619165e-02 -8.256587759030e-02)) ((-7.512752845724e+00 -6.716740153342e+01 -1.545824793314e+00) (-1.342342359889e-02 -1.398033203972e-01 4.922905174836e-02))
0.79337             	((9.004567504540e+00 -2.370015335961e-03 -4.516729704945e+01) (-1.638106644887e-01 -1.572484828325e-02 -8.774374705256e-02)) ((-7.621731227870e+00 -6.778745432399e+01 -1.682442940129e+00) (-1.425576571804e-02 -1.487886645508e-01 5.125737936054e-02))
0.80337             	((9.696560851753e+00 -2.410254021032e-03 -4.535804943082e+01) (-1.696802770475e-01 -1.643506560456e-02 -9.233826227656e-02)) ((-7.691050715220e+00 -6.795366895308e+01 -1.812186659838e+00) (-1.496547380237e-02 -1.569107061932e-01 5.326439096602e-02))
0.81337             	((1.032981290038e+01 -2.487454783608e-03 -4.524961725020e+01) (-1.745083455050e-01 -1.720611734033e-02 -9.626701747635e-02)) ((-7.716987244517e+00 -6.764234424951e+01 -1.932390038617e+00) (-1.554615983075e-02 -1.640061364499e-01 5.518434399454e-02))
0.82337             	((1.090151734590e+01 -2.600651181044e-03 -4.500634214951e+01) (-1.781810172149e-01 -1.801454914748e-02 -9.955450700228e-02)) ((-7.719949241064e+00 -6.712270148727e+01 -2.042788348818e+00) (-1.600587592797e-02 -1.700755219935e-01 5.696760855646e-02))
0.83337             	((1.140219038231e+01 -2.757044565810e-03 -4.456315061548e+01) (-1.806637277725e-01 -1.881453299440e-02 -1.022781522678e-01)) ((-7.691140864430e+00 -6.628894112715e+01 -2.141758487476e+00) (-1.636137401490e-02 -1.752053825468e-01 5.853632848836e-02))
0.84337             	((1.182680460101e+01 -2.924932413469e-03 -4.392969018443e+01) (-1.820147400649e-01 -1.958810128660e-02 -1.044882672626e-01)) ((-7.631196105156e+00 -6.515767240055e+01 -2.227770379493e+00) (-1.662077647573e-02 -1.794602743238e-01 5.986258904240e-02))
0.85337             	((1.217585562789e+01 -3.101808670906e-03 -4.314563015537e+01) (-1.823624772808e-01 -2.033327133228e-02 -1.061768566481e-01)) ((-7.544665601033e+00 -6.379406564537e+01 -2.300214002267e+00) (-1.677979725673e-02 -1.828348014344e-01 6.095722825557e-02))
0.86337             	((1.246155422646e+01 -3.285995516405e-03 -4.229454285204e+01) (-1.819435746797e-01 -2.105508177706e-02 -1.073672527263e-01)) ((-7.440432345896e+00 -6.233384499369e+01 -2.359799670486e+00) (-1.683927248303e-02 -1.853868868087e-01 6.186121137743e-02))
0.87337             	((1.268581203130e+01 -3.467689621524e-03 -4.140951906465e+01) (-1.809899445872e-01 -2.171798131965e-02 -1.081046865251e-01)) ((-7.322818708156e+00 -6.083249827538e+01 -2.406202064095e+00) (-1.681000910278e-02 -1.872073525754e-01 6.255732207749e-02))
0.88337             	((1.286133324253e+01 -3.646047234231e-03 -4.053008315901e+01) (-1.797587253503e-01 -2.224340873700e-02 -1.084694678790e-01)) ((-7.197901449480e+00 -5.935561795162e+01 -2.441017414854e+00) (-1.671704915127e-02 -1.884441844579e-01 6.297381033570e-02))
0.89337             	((1.297475944448e+01 -3.801420080082e-03 -3.965982027962e+01) (-1.784649668671e-01 -2.257203503109e-02 -1.085263845694e-01)) ((-7.068679039940e+00 -5.790943301562e+01 -2.462924983318e+00) (-1.658264768898e-02 -1.892169779382e-01 6.306616724178e-02))
0.90337             	((1.303917972235e+01 -3.942631793647e-03 -3.883374411461e+01) (-1.772917276377e-01 -2.269444280273e-02 -1.083036440233e-01)) ((-6.942188418366e+00 -5.654883939960e+01 -2.474307843334e+00) (-1.641646720848e-02 -1.895893863594e-01 6.285929823459e-02))
0.91337             	((1.303488827923e+01 -4.063085839508e-03 -3.797651198844e+01) (-1.763155711385e-01 -2.262400247895e-02 -1.078389968444e-01)) ((-6.809397662631e+00 -5.515538017497e+01 -2.472853354113e+00) (-1.622517378944e-02 -1.896277369548e-01 6.239685053432e-02))
0.92337             	((1.296327031899e+01 -4.150671445122e-03 -3.707933374879e+01) (-1.755041034507e-01 -2.243553445736e-02 -1.071560640343e-01)) ((-6.670843347493e+00 -5.371570586453e+01 -2.459262761094e+00) (-1.600271274982e-02 -1.893593781073e-01 6.179768888709e-02))
0.93337             	((1.283216129610e+01 -4.224883270914e-03 -3.617009824498e+01) (-1.745900846138e-01 -2.222237167773e-02 -1.061972326328e-01)) ((-6.528468046164e+00 -5.227386701883e+01 -2.434245429937e+00) (-1.572762364830e-02 -1.886540220247e-01 6.116939979248e-02))
0.94337             	((1.263046691741e+01 -4.295549305515e-03 -3.522229649223e+01) (-1.733083146667e-01 -2.201327591165e-02 -1.048882444558e-01)) ((-6.377125985255e+00 -5.078824687894e+01 -2.395949335496e+00) (-1.538712620802e-02 -1.873480180338e-01 6.051610790559e-02))
0.95337             	((1.235888549949e+01 -4.366282848094e-03 -3.425028439201e+01) (-1.715510413650e-01 -2.184630994612e-02 -1.031990824492e-01)) ((-6.219177387210e+00 -4.928070094821e+01 -2.344668030478e+00) (-1.497366354593e-02 -1.853619939390e-01 5.988358661046e-02))
0.96337             	((1.203379896320e+01 -4.429352813053e-03 -3.328315175863e+01) (-1.692867911728e-01 -2.168809301175e-02 -1.011397951997e-01)) ((-6.058726305660e+00 -4.779530610327e+01 -2.282870635593e+00) (-1.449561331581e-02 -1.826918193634e-01 5.921503019443e-02))
0.97337             	((1.165562220159e+01 -4.479216591469e-03 -3.229763418019e+01) (-1.664672023179e-01 -2.156360470452e-02 -9.870764145404e-02)) ((-5.895966593045e+00 -4.629137332958e+01 -2.211901430600e+00) (-1.395323169721e-02 -1.793100360477e-01 5.854808222897e-02))
0.98337             	((1.122181673043e+01 -4.505955023541e-03 -3.128573020910e+01) (-1.631503501163e-01 -2.150367016103e-02 -9.593916091678e-02)) ((-5.733174075628e+00 -4.475344660131e+01 -2.132592816360e+00) (-1.335170948600e-02 -1.752716064220e-01 5.794226714549e-02))
0.99337             	((1.074898257476e+01 -4.498474097468e-03 -3.026194529191e+01) (-1.595825919202e-01 -2.155338945275e-02 -9.291692359587e-02)) ((-5.571037903573e+00 -4.320295844009e+01 -2.047083964044e+00) (-1.269631461184e-02 -1.707388247473e-01 5.749653345405e-02))
1.00337             	((1.026916360290e+01 -4.454563446493e-03 -2.934354704056e+01) (-1.560419762398e-01 -2.173160656899e-02 -8.977066210536e-02)) ((-5.424349400461e+00 -4.182614218492e+01 -1.959719160144e+00) (-1.199986740462e-02 -1.659665980720e-01 5.726611021517e-02))
1.01337             	((9.785481353699e+00 -4.366954160875e-03 -2.852295770038e+01) (-1.527458285489e-01 -2.208427085475e-02 -8.662343070393e-02)) ((-5.292914609559e+00 -4.061020067221e+01 -1.871748315869e+00) (-1.126817098592e-02 -1.611959361302e-01 5.734622211151e-02))
1.02337             	((9.332110329005e+00 -4.243068437227e-03 -2.792332263150e+01) (-1.498470266455e-01 -2.262175899329e-02 -8.355976642476e-02)) ((-5.189332046619e+00 -3.975184086284e+01 -1.786692699006e+00) (-1.051269661033e-02 -1.565928482876e-01 5.777249705564e-02))
1.03337             	((8.920660197630e+00 -4.082142845817e-03 -2.762650246040e+01) (-1.474652368186e-01 -2.331211579892e-02 -8.064407445979e-02)) ((-5.126925153594e+00 -3.937803131191e+01 -1.707286636992e+00) (-9.747809295538e-03 -1.522848769663e-01 5.850696064065e-02))
1.04337             	((8.560018934038e+00 -3.894801416344e-03 -2.767465916405e+01) (-1.457239333864e-01 -2.414405153442e-02 -7.797803166268e-02)) ((-5.113072591007e+00 -3.955311950106e+01 -1.635289987114e+00) (-8.989378856736e-03 -1.484628383815e-01 5.954779195869e-02))
1.05337             	((8.241104858848e+00 -3.707685097688e-03 -2.798363932654e+01) (-1.446193407741e-01 -2.509397071064e-02 -7.562277317862e-02)) ((-5.138205929146e+00 -4.013844364256e+01 -1.570388017243e+00) (-8.251185089486e-03 -1.452303891002e-01 6.086402346140e-02))
1.06337             	((7.938785595442e+00 -3.537460195248e-03 -2.841559472090e+01) (-1.440915061336e-01 -2.615616734677e-02 -7.356623657349e-02)) ((-5.188509468968e+00 -4.091021250572e+01 -1.509710833580e+00) (-7.535979388622e-03 -1.425574173478e-01 6.244870888830e-02))