# Forces            
# CofR              : (1.500000000000e+00 0.000000000000e+00 5.000000000000e-01)
# Time              forces(pressure viscous)	moments(pressure viscous)
0                   	((0.000000000000e+00 0.000000000000e+00 0.000000000000e+00) (-6.387576681344e-03 1.141983002473e-12 3.664691652262e-13)) ((0.000000000000e+00 0.000000000000e+00 0.000000000000e+00) (1.098662474204e-13 -9.211453771145e-04 1.102646280153e-03))
0.00667             	((-1.822340264895e+01 -1.260297658373e-06 1.756505463920e-04) (-3.608275992346e-03 -9.156225859434e-04 -3.218369576756e-04)) ((2.935659344533e-05 -2.767443206667e+00 3.025608751629e+00) (1.563284454213e-05 -1.040268706976e-03 2.025190295156e-03))
0.01334             	((9.303114988017e+00 1.432587098605e-06 -8.447829872201e-04) (-2.694292742445e-03 -1.000827238445e-04 3.513167418231e-04)) ((-1.402121551096e-04 1.372827014290e+00 -1.541736503001e+00) (8.047555674650e-05 2.027034651670e-04 6.507357915418e-04))
0.02001             	((-1.353738876731e+00 -2.282969527904e-07 4.380396832118e-04) (-2.447028284002e-03 -3.975320499699e-05 1.115399812556e-04)) ((7.144376971960e-05 -2.278857116692e-01 2.206740436198e-01) (4.902105886987e-05 -1.637867755810e-04 4.973927935619e-04))
0.02668             	((-7.102753308113e-01 -1.546574044088e-07 5.085571400892e-04) (-2.589655703490e-03 -1.597979468733e-04 8.399874654969e-05)) ((8.336812037926e-05 -1.226618417905e-01 1.163985175822e-01) (5.208089810512e-05 -2.339679815574e-04 7.022459493901e-04))
0.03335             	((6.468274300489e-01 1.862749029855e-07 -8.101706197131e-04) (-2.437455995116e-03 -1.653654633083e-04 1.321961236251e-04)) ((-1.365921232357e-04 7.977050176858e-02 -1.090345844555e-01) (6.205586966255e-05 -1.409983994312e-04 6.803635168036e-04))
0.04002             	((-1.516056515058e-01 -5.247191686265e-08 2.941242541924e-04) (-2.318794346121e-03 -1.982184601366e-04 9.660598859393e-05)) ((4.478744144870e-05 -3.774517529608e-02 2.307884703222e-02) (6.377860482819e-05 -1.801906889675e-04 7.067941664738e-04))
0.04669             	((-3.910515107569e-02 -1.591959276017e-08 1.085743004910e-04) (-2.248906721791e-03 -2.129909108574e-04 9.871327538252e-05)) ((1.274442265594e-05 -1.950117464989e-02 4.587302140293e-03) (6.858481780218e-05 -1.646650230288e-04 7.158922156170e-04))
0.05336             	((3.218832935157e-02 1.475202529025e-08 -1.209645788431e-04) (-2.194496963833e-03 -2.172682620548e-04 1.032434710036e-04)) ((-2.741719836151e-05 -8.198080269427e-03 -7.296639316081e-03) (7.269475745637e-05 -1.491770684319e-04 7.117515942977e-04))
0.06003             	((-3.059241753162e-02 -1.567788702212e-08 1.494063009008e-04) (-2.164748302037e-03 -2.206858013199e-04 1.000033001300e-04)) ((1.496236451264e-05 -1.624301329733e-02 3.061993479325e-03) (7.490071541027e-05 -1.503382336301e-04 7.107182102142e-04))
0.0667              	((-2.086450451699e-02 -1.151497575902e-08 1.283303836089e-04) (-2.158134649155e-03 -2.205125919869e-04 1.044754074315e-04)) ((8.524788758945e-06 -1.406597259949e-02 1.384740705114e-03) (7.715051544871e-05 -1.443258829462e-04 7.078527612482e-04))
0.07337             	((-2.133523803346e-02 -1.255262457586e-08 1.612165022920e-04) (-2.153966823952e-03 -2.184947217832e-04 1.047936729609e-04)) ((1.093667241262e-05 -1.305075635528e-02 1.446337099217e-03) (7.811515039937e-05 -1.458662745720e-04 7.023950120822e-04))
0.08337             	((-3.027791421602e-02 -1.868020590737e-08 3.002347068618e-04) (-2.172780355408e-03 -2.164663941060e-04 1.076560419925e-04)) ((2.864098958591e-05 -1.284934090806e-02 2.887574502797e-03) (7.926366338560e-05 -1.483803120343e-04 6.998641296213e-04))
0.09337             	((-3.485033082286e-02 -2.198025978443e-08 4.380434042684e-04) (-2.184940804731e-03 -2.136384658161e-04 1.194459422286e-04)) ((4.591176292048e-05 -1.163240490188e-02 3.652115329474e-03) (8.175121828096e-05 -1.361745857642e-04 6.951819939186e-04))
0.10337             	((-3.972781262378e-02 -2.515251184552e-08 6.159888158764e-04) (-2.182986523721e-03 -2.095109630640e-04 1.248896078920e-04)) ((6.980806681563e-05 -1.049246606659e-02 4.501799869241e-03) (8.313663736356e-05 -1.300317856502e-04 6.867886347639e-04))
0.11337             	((-4.415950437139e-02 -2.719056001407e-08 8.262391040567e-04) (-2.178206755067e-03 -2.054350742287e-04 1.317214886381e-04)) ((9.885762835809e-05 -9.329791680209e-03 5.283277624249e-03) (8.451291231099e-05 -1.195439494348e-04 6.783033390954e-04))
0.12337             	((-4.625878445605e-02 -2.732186548338e-08 1.025550275895e-03) (-2.165344801408e-03 -2.011650211833e-04 1.360950863483e-04)) ((1.269648267102e-04 -7.532355946996e-03 5.726713888204e-03) (8.534675803837e-05 -1.100985384655e-04 6.684906531351e-04))
0.13337             	((-4.830655686247e-02 -2.652113253804e-08 1.249535481156e-03) (-2.149287548224e-03 -1.972158154170e-04 1.416308578012e-04)) ((1.594090944675e-04 -5.763390271236e-03 6.162571523169e-03) (8.613559061369e-05 -9.735685752627e-05 6.586711992237e-04))
0.14337             	((-4.917011144300e-02 -2.449852146685e-08 1.464424645676e-03) (-2.127282592727e-03 -1.931467296398e-04 1.470518200993e-04)) ((1.914831645132e-04 -3.742202195702e-03 6.429253234170e-03) (8.673329086523e-05 -8.296090345108e-05 6.477556109624e-04))
0.15337             	((-4.909769317033e-02 -2.149133930886e-08 1.664319259359e-03) (-2.099645783950e-03 -1.888969368553e-04 1.520239676056e-04)) ((2.221153596701e-04 -1.597316403936e-03 6.552419148204e-03) (8.709618412511e-05 -6.761358032953e-05 6.356974938577e-04))
0.16337             	((-4.825550884772e-02 -1.774009827306e-08 1.842928510976e-03) (-2.068281055955e-03 -1.846427172961e-04 1.575505646878e-04)) ((2.503464298653e-04 6.149480932288e-04 6.555113265099e-03) (8.741068002217e-05 -5.009973486213e-05 6.230676872490e-04))
0.17337             	((-4.632350465562e-02 -1.355687659291e-08 1.975170749577e-03) (-2.033271127143e-03 -1.802814864329e-04 1.626782904775e-04)) ((2.723213633324e-04 2.934604775185e-03 6.386748858190e-03) (8.759338001185e-05 -3.194971065760e-05 6.097664265729e-04))
0.18337             	((-4.370421941019e-02 -9.184281542878e-09 2.063542781067e-03) (-1.996689465997e-03 -1.758988476457e-04 1.689490106967e-04)) ((2.881155975249e-04 5.241762980964e-03 6.102085848920e-03) (8.785534069503e-05 -1.112706394423e-05 5.961999200884e-04))
0.19337             	((-4.019905745918e-02 -5.006417676848e-09 2.086219600713e-03) (-1.958069393448e-03 -1.713240757177e-04 1.758915179750e-04)) ((2.943410592363e-04 7.542392692411e-03 5.671632397958e-03) (8.813626093384e-05 1.167702125373e-05 5.820203251507e-04))
0.20337             	((-3.608207200060e-02 -1.296266313598e-09 2.044201850597e-03) (-1.918278967015e-03 -1.665707459979e-04 1.836845306331e-04)) ((2.909139748943e-04 9.742965423854e-03 5.134909447467e-03) (8.844545689585e-05 3.661823407570e-05 5.673558180376e-04))
0.21337             	((-3.136191135686e-02 1.706317941544e-09 1.927434890699e-03) (-1.877984747425e-03 -1.616212588369e-04 1.922115559745e-04)) ((2.761158388551e-04 1.181487051157e-02 4.492758824748e-03) (8.875628331022e-05 6.342989145360e-05 5.522596542634e-04))
0.22337             	((-2.612429958978e-02 3.770493126514e-09 1.731450982235e-03) (-1.837138474902e-03 -1.565473858038e-04 2.007968875144e-04)) ((2.490753096219e-04 1.373732027223e-02 3.758042325550e-03) (8.896022549116e-05 9.088253764575e-05 5.368160223245e-04))
0.23337             	((-2.054258024195e-02 4.804307139142e-09 1.460188212049e-03) (-1.797432628150e-03 -1.516263985779e-04 2.097270469000e-04)) ((2.100588604736e-04 1.545590057355e-02 2.955151009694e-03) (8.918379264580e-05 1.190693143546e-04 5.217206244197e-04))
0.24337             	((-1.467592466426e-02 4.718220931987e-09 1.112958963960e-03) (-1.759889708868e-03 -1.467040624392e-04 2.187053423730e-04)) ((1.586886046575e-04 1.696356582988e-02 2.092459869973e-03) (8.935449074415e-05 1.474340956936e-04 5.069102930556e-04))
0.25337             	((-8.646950784785e-03 3.529173109725e-09 6.961426778745e-04) (-1.724515562663e-03 -1.416584431604e-04 2.269883354303e-04)) ((9.560039095670e-05 1.824579550127e-02 1.187382393529e-03) (8.933433241523e-05 1.748936553752e-04 4.922006933505e-04))
0.26337             	((-2.581307046785e-03 1.279509302555e-09 2.195686534580e-04) (-1.692872033252e-03 -1.367809772414e-04 2.350776236076e-04)) ((2.201175398587e-05 1.927184692880e-02 2.586643727900e-04) (8.934464902309e-05 2.017223582930e-04 4.782846614082e-04))
0.27337             	((3.401810544580e-03 -1.950930481612e-09 -3.043310554015e-04) (-1.666270626199e-03 -1.322879748366e-04 2.431220615032e-04)) ((-6.052173199863e-05 2.003758342697e-02 -6.766406988650e-04) (8.949519440896e-05 2.276938577506e-04 4.656803183679e-04))
0.28337             	((9.092603239231e-03 -5.995948956118e-09 -8.517310316330e-04) (-1.645931604923e-03 -1.282514158796e-04 2.516773669630e-04)) ((-1.485571778193e-04 2.052953750440e-02 -1.586058037908e-03) (8.987701446231e-05 2.533959717458e-04 4.547056467918e-04))
0.29337             	((1.434417651247e-02 -1.068338319521e-08 -1.400847271425e-03) (-1.632356831000e-03 -1.245646841824e-04 2.613249595834e-04)) ((-2.389783389790e-04 2.077440636894e-02 -2.447211635229e-03) (9.057122279972e-05 2.795898774200e-04 4.452925920669e-04))
0.30337             	((1.905303321565e-02 -1.585557774814e-08 -1.931711859844e-03) (-1.625612709131e-03 -1.210333922513e-04 2.726395745022e-04)) ((-3.287501055533e-04 2.077974435442e-02 -3.242728193339e-03) (9.160998589003e-05 3.071037291512e-04 4.371679594556e-04))
0.31337             	((2.310147289052e-02 -2.132570610970e-08 -2.421432041999e-03) (-1.625771302373e-03 -1.176406218436e-04 2.856877169204e-04)) ((-4.141793972768e-04 2.058382607337e-02 -3.951625850107e-03) (9.303492285023e-05 3.360102106110e-04 4.303303334793e-04))
0.32337             	((2.637021406185e-02 -2.687343233322e-08 -2.845849346877e-03) (-1.632794322061e-03 -1.141299522482e-04 3.008208486793e-04)) ((-4.915334144005e-04 2.018883255885e-02 -4.554838533861e-03) (9.482254271119e-05 3.669626973090e-04 4.243912540898e-04))
0.33337             	((2.871701956308e-02 -3.217737927114e-08 -3.177792926947e-03) (-1.646031505471e-03 -1.100049140631e-04 3.183799149817e-04)) ((-5.560778017212e-04 1.965173889880e-02 -5.025352554611e-03) (9.691029500306e-05 4.006812012888e-04 4.184954398979e-04))
0.34337             	((3.009138863084e-02 -3.694557223426e-08 -3.400489239405e-03) (-1.664763273934e-03 -1.051711287276e-04 3.384287081107e-04)) ((-6.047798511820e-04 1.901483901625e-02 -5.351985286237e-03) (9.934767690504e-05 4.374994621832e-04 4.123987584112e-04))
0.35337             	((3.044847109344e-02 -4.085021292557e-08 -3.499425797280e-03) (-1.688618467694e-03 -1.012604565591e-04 3.599817198903e-04)) ((-6.348694324653e-04 1.831650295396e-02 -5.524206884343e-03) (1.024749722066e-04 4.759124773112e-04 4.085158635779e-04))
0.36337             	((2.979657115811e-02 -4.353530161213e-08 -3.468443229497e-03) (-1.715959214290e-03 -9.860072775408e-05 3.825391248507e-04)) ((-6.449670692728e-04 1.758850342412e-02 -5.540979587155e-03) (1.063070650334e-04 5.155485003285e-04 4.070967469186e-04))
0.37337             	((2.816326085768e-02 -4.463614683380e-08 -3.306511156787e-03) (-1.744677414689e-03 -9.603808587736e-05 4.060525463931e-04)) ((-6.341612109453e-04 1.686965274109e-02 -5.401705890798e-03) (1.105228998193e-04 5.568498573501e-04 4.060623233338e-04))
0.38337             	((2.561131789824e-02 -4.385149197170e-08 -3.019861153723e-03) (-1.773137249302e-03 -9.288536142959e-05 4.296885632640e-04)) ((-6.026539960011e-04 1.620173507053e-02 -5.111318995319e-03) (1.148300202307e-04 5.988078411946e-04 4.041406286210e-04))
0.39337             	((2.232481219467e-02 -4.111034530582e-08 -2.632190526508e-03) (-1.799645957217e-03 -8.919541329038e-05 4.522259353911e-04)) ((-5.532440507161e-04 1.559255833237e-02 -4.692559486255e-03) (1.190185660121e-04 6.397880646245e-04 4.012058980373e-04))
0.40337             	((1.845894199583e-02 -3.638049192004e-08 -2.166521345376e-03) (-1.821852564502e-03 -8.497057138024e-05 4.725751709439e-04)) ((-4.885914676009e-04 1.507789362038e-02 -4.163093129481e-03) (1.228729138121e-04 6.784751311306e-04 3.969637336648e-04))
0.41337             	((1.423522622535e-02 -2.987323883640e-08 -1.655510730034e-03) (-1.837513742319e-03 -8.073098540985e-05 4.900496733159e-04)) ((-4.132242018907e-04 1.466160368693e-02 -3.553452028695e-03) (1.262372197145e-04 7.139868400285e-04 3.918954486376e-04))
0.42337             	((9.912786081039e-03 -2.203104811901e-08 -1.136781172575e-03) (-1.844657191645e-03 -7.630993668464e-05 5.035964076229e-04)) ((-3.323881213479e-04 1.434066991206e-02 -2.898718148108e-03) (1.289293353137e-04 7.446315908811e-04 3.854465306580e-04))
0.43337             	((5.757105006803e-03 -1.347568595266e-08 -6.477386972118e-04) (-1.841706995441e-03 -7.148286298569e-05 5.124841768836e-04)) ((-2.518378842303e-04 1.409656001946e-02 -2.238629568846e-03) (1.308174022869e-04 7.690975098993e-04 3.770299365039e-04))
0.44337             	((1.969063528387e-03 -4.831387683118e-09 -2.161961244585e-04) (-1.827440629312e-03 -6.625317345048e-05 5.163158438136e-04)) ((-1.757850376247e-04 1.391720895192e-02 -1.601319238141e-03) (1.318625549484e-04 7.865202429258e-04 3.664750373258e-04))
0.45337             	((-1.285338008397e-03 3.268383278178e-09 1.369385416697e-04) (-1.800839611921e-03 -6.091472115427e-05 5.150366735447e-04)) ((-1.077700973565e-04 1.378573082152e-02 -1.011886115670e-03) (1.320785988769e-04 7.965855772910e-04 3.541010984816e-04))
0.46337             	((-3.888298039770e-03 1.026369890793e-08 3.995132556398e-04) (-1.761877111041e-03 -5.549745363682e-05 5.087758545324e-04)) ((-4.991245151607e-05 1.369017186173e-02 -4.861294326681e-04) (1.314735886671e-04 7.991761347557e-04 3.399530747097e-04))
0.47337             	((-5.747385008853e-03 1.564567132555e-08 5.657447805422e-04) (-1.709766276070e-03 -4.982127654927e-05 4.977932838423e-04)) ((-4.029039960264e-06 1.362210775415e-02 -4.130787000171e-05) (1.300494666543e-04 7.947486734784e-04 3.236331614857e-04))
0.48337             	((-6.717825739405e-03 1.877376635349e-08 6.289099380479e-04) (-1.643198159434e-03 -4.361425811882e-05 4.824203482500e-04)) ((2.808709798074e-05 1.357329671069e-02 2.996125326577e-04) (1.278979580157e-04 7.837551446555e-04 3.045009656025e-04))
0.49337             	((-6.790605341186e-03 1.941057693494e-08 5.997206946957e-04) (-1.562469612770e-03 -3.687614039550e-05 4.633708103660e-04)) ((4.723135830484e-05 1.354712236087e-02 5.343595881640e-04) (1.251701701624e-04 7.671887430382e-04 2.825928487463e-04))
0.50337             	((-6.059709340388e-03 1.766700671508e-08 5.002455986608e-04) (-1.468499732617e-03 -2.993543856209e-05 4.420311171711e-04)) ((5.571161871775e-05 1.355798720613e-02 6.743821727816e-04) (1.220771671102e-04 7.470260161755e-04 2.585981849436e-04))
0.51337             	((-4.579290129695e-03 1.359440898929e-08 3.496452451745e-04) (-1.360445050183e-03 -2.297845326448e-05 4.197889478342e-04)) ((5.531838748953e-05 1.360642781062e-02 7.239741103811e-04) (1.187951501099e-04 7.250406352086e-04 2.326532367203e-04))
0.52337             	((-2.644878002638e-03 7.988183500067e-09 1.844732332095e-04) (-1.241074165419e-03 -1.545054187144e-05 3.964811049284e-04)) ((5.064475748113e-05 1.374525115004e-02 7.255234743003e-04) (1.153942636880e-04 7.008684923841e-04 2.043607337818e-04))
0.53337             	((-5.952532708733e-04 1.845622027711e-09 3.736094682356e-05) (-1.115273065544e-03 -8.159290109169e-06 3.701598520342e-04)) ((4.538555033917e-05 1.403796964602e-02 7.224223652637e-04) (1.111943969205e-04 6.712790854514e-04 1.757921545006e-04))
0.54337             	((1.348973263164e-03 -4.128909234380e-09 -7.478511676189e-05) (-9.867925973730e-04 -1.841123782237e-06 3.386173759035e-04)) ((4.076585312945e-05 1.450895637277e-02 7.345257840811e-04) (1.055397897878e-04 6.324686162898e-04 1.486586025170e-04))
0.55337             	((3.091304158255e-03 -9.591128671963e-09 -1.477728958212e-04) (-8.558435960321e-04 3.858444532784e-06 2.973218198973e-04)) ((3.726540681649e-05 1.508768680320e-02 7.785819345858e-04) (9.704232516182e-05 5.761198950097e-04 1.225065667387e-04))
0.56337             	((2.216233110508e-03 -6.900804241092e-09 -8.841181748800e-05) (-7.434024146086e-04 8.455474032936e-06 2.555560484727e-04)) ((4.731350530167e-05 1.600967518656e-02 1.184756741948e-03) (8.827339284524e-05 5.188473643034e-04 1.009791438619e-04))
0.57337             	((-2.049690768388e-04 6.939125472772e-10 6.506748989833e-06) (-6.586074715563e-04 1.185517587571e-05 2.161689987003e-04)) ((5.647477408532e-05 1.697539375356e-02 1.777326715383e-03) (7.933363004975e-05 4.653316136290e-04 8.536342678246e-05))
0.58337             	((-5.998530472215e-03 1.901301054307e-08 1.403437126679e-04) (-6.125686630580e-04 1.688546408177e-05 1.821698730185e-04)) ((6.588011200124e-05 1.803001898707e-02 2.813391416410e-03) (7.094945661808e-05 4.210142401356e-04 7.272185314280e-05))
0.59337             	((-1.508144711212e-02 4.813017381794e-08 2.244711681603e-04) (-6.157917471799e-04 2.200956499540e-05 1.503775292384e-04)) ((6.361081719287e-05 1.890587904915e-02 4.269741141995e-03) (6.230088109481e-05 3.797131068808e-04 6.699012202197e-05))
0.60337             	((-2.732476509447e-02 8.846041698231e-08 1.706440589998e-04) (-6.663868165698e-04 2.636045667342e-05 1.040339339939e-04)) ((3.836386057746e-05 1.956103621409e-02 6.132960925422e-03) (5.143566462402e-05 3.121779819985e-04 6.917734330251e-05))
0.61337             	((-4.386381312399e-02 1.450401227257e-07 -1.089273167955e-04) (-7.653636923270e-04 2.914401525163e-05 4.631531153082e-05)) ((-2.115221472253e-05 1.993592395294e-02 8.544307603335e-03) (3.909839573547e-05 2.275264853226e-04 8.040956388361e-05))
0.62337             	((-6.475592573946e-02 2.200101958064e-07 -7.294432346573e-04) (-9.038953715947e-04 3.023097920980e-05 -1.886820723842e-05)) ((-1.292539087832e-04 1.975469439444e-02 1.148040468143e-02) (2.620549470475e-05 1.335154391920e-04 9.931656692695e-05))
0.63337             	((-8.830779472260e-02 3.098175686690e-07 -1.771687225001e-03) (-1.065909922163e-03 3.008664873024e-05 -9.134564262186e-05)) ((-2.955681496624e-04 1.896312984124e-02 1.473558516701e-02) (1.275490350629e-05 3.092168286391e-05 1.228989330144e-04))
0.64337             	((-1.127648817098e-01 4.103636073949e-07 -3.252441682795e-03) (-1.243053972199e-03 2.842087394353e-05 -1.479744176993e-04)) ((-5.222526356729e-04 1.746453283560e-02 1.810914114107e-02) (1.648482415997e-06 -4.309317151454e-05 1.509257428442e-04))
0.65337             	((-1.357517059774e-01 5.143529453679e-07 -5.100281694395e-03) (-1.424077528201e-03 2.500213120012e-05 -1.675745463279e-04)) ((-7.993157880664e-04 1.508734565551e-02 2.127651982143e-02) (-4.442217212395e-06 -5.908750364001e-05 1.826071081034e-04))
0.66337             	((-1.576155998205e-01 6.232959335893e-07 -7.284020380231e-03) (-1.609667506940e-03 2.162664579660e-05 -1.918819759155e-04)) ((-1.120867268294e-03 1.166008618455e-02 2.425493452745e-02) (-1.157955801613e-05 -8.355673717592e-05 2.149991728913e-04))
0.67337             	((-1.783187069481e-01 7.371857990360e-07 -9.761306553107e-03) (-1.781644940426e-03 1.212829040603e-05 -2.338820506893e-04)) ((-1.483979023340e-03 7.750040890258e-03 2.710978654314e-02) (-2.234856906318e-05 -1.377447885400e-04 2.560770536165e-04))
0.68337             	((-1.964885338314e-01 8.500543308281e-07 -1.240267882495e-02) (-1.926535866059e-03 -7.550490260799e-06 -2.883217895009e-04)) ((-1.870182462943e-03 3.169726772565e-03 2.962844666009e-02) (-3.682158339046e-05 -2.137328307828e-04 3.104194121921e-04))
0.69337             	((-2.129089923870e-01 9.648009225095e-07 -1.518639715138e-02) (-2.046473018345e-03 -2.549822555891e-05 -3.432433529496e-04)) ((-2.276324299609e-03 -2.222199860982e-03 3.191328184702e-02) (-5.211330042474e-05 -2.959586392372e-04 3.583697479215e-04))
0.70337             	((-2.274064728449e-01 1.080595541370e-06 -1.804098844148e-02) (-2.143628150656e-03 -3.654418797363e-05 -3.937221080857e-04)) ((-2.688358444030e-03 -8.132898390638e-03 3.388624346372e-02) (-6.527464050050e-05 -3.788429801274e-04 3.916684426881e-04))
0.71337             	((-2.399739653384e-01 1.197116380929e-06 -2.090498257494e-02) (-2.230008589083e-03 -4.410058006421e-05 -4.453555738571e-04)) ((-3.099014466348e-03 -1.422471335395e-02 3.557361323877e-02) (-7.718113937353e-05 -4.661260705371e-04 4.175223432374e-04))
0.72337             	((-2.508045124439e-01 1.315338348221e-06 -2.373736175320e-02) (-2.313121914599e-03 -5.073987467041e-05 -4.965139430121e-04)) ((-3.501550577053e-03 -2.025365093498e-02 3.699560452949e-02) (-8.842279276208e-05 -5.521126815078e-04 4.410051043116e-04))
0.73337             	((-2.594246003777e-01 1.432777346257e-06 -2.643709273128e-02) (-2.395441394474e-03 -5.535860367049e-05 -5.455843950715e-04)) ((-3.883434058829e-03 -2.613303772895e-02 3.810634168248e-02) (-9.918988185408e-05 -6.330769588802e-04 4.605243845832e-04))
0.74337             	((-2.644189742216e-01 1.540970101107e-06 -2.878987584942e-02) (-2.472043933682e-03 -5.734356761668e-05 -5.936728905265e-04)) ((-4.216693478076e-03 -3.163056365273e-02 3.872628803316e-02) (-1.101511076298e-04 -7.115243837060e-04 4.745200151969e-04))
0.75337             	((-2.657204031659e-01 1.637731416306e-06 -3.070320040296e-02) (-2.535271680135e-03 -5.881082300040e-05 -6.421986347881e-04)) ((-4.488607838980e-03 -3.681130955044e-02 3.884462804052e-02) (-1.213177416069e-04 -7.915472564054e-04 4.856746273918e-04))
0.76337             	((-2.636862218657e-01 1.722563585476e-06 -3.214154841780e-02) (-2.576661194760e-03 -5.968736878994e-05 -6.893152973633e-04)) ((-4.691454268120e-03 -4.161687717158e-02 3.848601655353e-02) (-1.320910013940e-04 -8.723259751705e-04 4.928806563932e-04))
0.77337             	((-2.580132150293e-01 1.790428030382e-06 -3.300114089999e-02) (-2.593037594047e-03 -5.953759777750e-05 -7.321679322579e-04)) ((-4.808338009449e-03 -4.602962492736e-02 3.759058937976e-02) (-1.414983351387e-04 -9.511828648914e-04 4.947990566750e-04))
0.78337             	((-2.492337784246e-01 1.841554941291e-06 -3.329028513105e-02) (-2.587826412216e-03 -5.757773449878e-05 -7.726202879426e-04)) ((-4.837953956391e-03 -4.981032711051e-02 3.621746738574e-02) (-1.498820285764e-04 -1.031832420639e-03 4.900727783257e-04))
0.79337             	((-2.371890460185e-01 1.870999238876e-06 -3.294091657257e-02) (-2.570611918331e-03 -5.414253176497e-05 -8.109046931507e-04)) ((-4.766674902091e-03 -5.278889517992e-02 3.431915143391e-02) (-1.577669271898e-04 -1.113147952667e-03 4.804895722165e-04))
0.80337             	((-2.222512160046e-01 1.877332517198e-06 -3.196561758527e-02) (-2.543911830428e-03 -4.956461095788e-05 -8.451524087263e-04)) ((-4.598419679546e-03 -5.475745076591e-02 3.196877281582e-02) (-1.647212468113e-04 -1.190613451770e-03 4.672179710297e-04))
0.81337             	((-2.050862780653e-01 1.860832277666e-06 -3.043526528322e-02) (-2.509786047034e-03 -4.625998568195e-05 -8.756821730406e-04)) ((-4.346949070976e-03 -5.585772523649e-02 2.928825013394e-02) (-1.704638683697e-04 -1.264772614402e-03 4.551280336053e-04))
0.82337             	((-1.866924988548e-01 1.824799217100e-06 -2.848975686206e-02) (-2.466324481694e-03 -4.430685874513e-05 -9.025531790518e-04)) ((-4.033139600271e-03 -5.622346336318e-02 2.642543828449e-02) (-1.754204162408e-04 -1.335341754695e-03 4.443916439792e-04))
0.83337             	((-1.670040708782e-01 1.762749734899e-06 -2.612341013534e-02) (-2.404784730224e-03 -4.274041740603e-05 -9.235223441827e-04)) ((-3.663884533601e-03 -5.582698472091e-02 2.341904130736e-02) (-1.790939287478e-04 -1.396917028889e-03 4.317832769582e-04))
0.84337             	((-1.462561524568e-01 1.669905237502e-06 -2.338100661251e-02) (-2.322456592820e-03 -4.059371682309e-05 -9.383784039809e-04)) ((-3.241442803791e-03 -5.460144718100e-02 2.027242791649e-02) (-1.809479519897e-04 -1.449160000402e-03 4.155416909941e-04))
0.85337             	((-1.249351597174e-01 1.544346642135e-06 -2.035443898352e-02) (-2.219206628701e-03 -3.656924744898e-05 -9.467189602026e-04)) ((-2.779894925922e-03 -5.251776085034e-02 1.705895744313e-02) (-1.818363487792e-04 -1.493232833988e-03 3.932983387960e-04))
0.86337             	((-1.035180151734e-01 1.385141739565e-06 -1.714188169252e-02) (-2.099681695536e-03 -3.327124315775e-05 -9.477619158398e-04)) ((-2.286990221057e-03 -4.976677204449e-02 1.380687115247e-02) (-1.824403539471e-04 -1.528968775398e-03 3.699636849265e-04))
0.87337             	((-8.307525570944e-02 1.202057966777e-06 -1.394696266516e-02) (-1.973805853576e-03 -3.339979175933e-05 -9.437726133695e-04)) ((-1.798070060951e-03 -4.638998073713e-02 1.070622814601e-02) (-1.839814402703e-04 -1.554869811297e-03 3.514130564592e-04))
0.88337             	((-6.389909996152e-02 9.980669562001e-07 -1.084955873049e-02) (-1.851086771418e-03 -3.571088089505e-05 -9.379225154500e-04)) ((-1.330206898009e-03 -4.243771825463e-02 7.830425896023e-03) (-1.870304852084e-04 -1.564689366968e-03 3.371759080774e-04))
0.89337             	((-4.699607145212e-02 7.904568597557e-07 -8.051408082783e-03) (-1.737050219546e-03 -3.839638066530e-05 -9.261725712224e-04)) ((-9.163779391803e-04 -3.830956951597e-02 5.345136975835e-03) (-1.912619068615e-04 -1.551633811524e-03 3.247963216292e-04))
0.90337             	((-3.179282892402e-02 5.742432615042e-07 -5.483389508115e-03) (-1.639718887073e-03 -3.638312580742e-05 -9.042997095609e-04)) ((-5.438801605279e-04 -3.418467966492e-02 3.149850428156e-03) (-1.929687042028e-04 -1.513925353763e-03 3.073148345463e-04))
0.91337             	((-1.896228750163e-02 3.667739607433e-07 -3.285217542892e-03) (-1.550295043212e-03 -2.568565081276e-05 -8.691587768239e-04)) ((-2.399993664884e-04 -3.001354511339e-02 1.381925914107e-03) (-1.877279383459e-04 -1.456603129659e-03 2.766390337504e-04))
0.92337             	((-8.475776176771e-03 1.751070392579e-07 -1.471877751110e-03) (-1.471148288500e-03 -1.208831148712e-05 -8.283151408727e-04)) ((-6.389078757591e-06 -2.591765466294e-02 3.370711522966e-05) (-1.798611746685e-04 -1.391685166745e-03 2.430414177330e-04))
0.93337             	((-6.016194452135e-04 1.320750468036e-08 -1.044995761567e-04) (-1.407155736754e-03 -4.355205485114e-06 -7.819119411451e-04)) ((1.473579133639e-04 -2.193116297362e-02 -8.511428582614e-04) (-1.724378115955e-04 -1.314328257997e-03 2.227046013279e-04))
0.94337             	((4.819608128870e-03 -1.130525812307e-07 8.355978524624e-04) (-1.363939054787e-03 4.823600992127e-06 -7.298136330294e-04)) ((2.316191009535e-04 -1.830562107125e-02 -1.338421340974e-03) (-1.637680455063e-04 -1.222115274515e-03 2.049566279701e-04))
0.95337             	((8.007038645624e-03 -1.995971055441e-07 1.382766253720e-03) (-1.342127694846e-03 1.517351459359e-05 -6.774260375720e-04)) ((2.600283240369e-04 -1.524133630021e-02 -1.507918155063e-03) (-1.558447675042e-04 -1.125889636056e-03 1.897229428489e-04))
0.96337             	((1.018281496204e-02 -2.695004366404e-07 1.747973765926e-03) (-1.339438021010e-03 2.239607394811e-05 -6.251530159199e-04)) ((2.665810350407e-04 -1.235797858017e-02 -1.554871939084e-03) (-1.483259781731e-04 -1.029587427651e-03 1.824390049321e-04))
0.97337             	((1.211262173260e-02 -3.400519196168e-07 2.062479663632e-03) (-1.371526804066e-03 3.633898418146e-05 -5.878462744064e-04)) ((2.719158392840e-04 -9.441413868770e-03 -1.598475859981e-03) (-1.429902397376e-04 -9.633077156546e-04 1.653533484629e-04))
0.98337             	((1.343888755464e-02 -3.998455869625e-07 2.265078728517e-03) (-1.410273696835e-03 5.407996559563e-05 -5.665057167722e-04)) ((2.766798668073e-04 -6.967652574072e-03 -1.642792968259e-03) (-1.386410130631e-04 -9.271110912992e-04 1.401791690363e-04))
0.99337             	((1.418653112598e-02 -4.468908833388e-07 2.361742538873e-03) (-1.416669231968e-03 7.039605191503e-05 -5.538257337261e-04)) ((2.854150502263e-04 -4.933735425536e-03 -1.715366587405e-03) (-1.347034578293e-04 -9.039347242282e-04 1.129141086951e-04))
1.00337             	((1.454429569841e-02 -4.845664252430e-07 2.386332530037e-03) (-1.394606112653e-03 8.609001166926e-05 -5.329509913713e-04)) ((2.915980414369e-04 -3.147617241939e-03 -1.777880201345e-03) (-1.290518638771e-04 -8.639158946632e-04 8.380124293455e-05))
1.01337             	((1.479130420489e-02 -5.206527701770e-07 2.386399833460e-03) (-1.366387701014e-03 9.961623548591e-05 -5.094993103140e-04)) ((2.912874097162e-04 -1.430962322593e-03 -1.805760179479e-03) (-1.227092771714e-04 -8.201057027445e-04 5.814765028737e-05))
1.02337             	((1.432479422403e-02 -5.321878647859e-07 2.267272600334e-03) (-1.327765226090e-03 1.072632022029e-04 -4.888913902554e-04)) ((2.776853118680e-04 -3.903298967893e-05 -1.754445340782e-03) (-1.159696574168e-04 -7.824225121114e-04 4.154282567165e-05))
1.03337             	((1.264224469307e-02 -4.951974915900e-07 1.958184985624e-03) (-1.274591109067e-03 1.099631016816e-04 -4.724905461034e-04)) ((2.438028472806e-04 7.543590159377e-04 -1.573825692020e-03) (-1.092735662065e-04 -7.520052347273e-04 3.180020530693e-05))
1.04337             	((9.402491399282e-03 -3.878728492383e-07 1.421571425970e-03) (-1.208133535610e-03 1.167275996657e-04 -4.519343007606e-04)) ((1.842330349140e-04 9.408615539320e-04 -1.218288917643e-03) (-1.031530019543e-04 -7.124256045491e-04 1.315376014883e-05))
1.05337             	((5.371829485830e-03 -2.331073508552e-07 7.906106193064e-04) (-1.162967894401e-03 1.255379022228e-04 -4.328608615698e-04)) ((1.028230958790e-04 9.392750584396e-04 -6.983580237392e-04) (-9.790269558306e-05 -6.780056144962e-04 -8.947421934706e-06))
1.06337             	((1.621551220589e-03 -7.394306700187e-08 2.316482641598e-04) (-1.144277422581e-03 1.350200353180e-04 -4.233668096846e-04)) ((1.576907036191e-05 1.167215261442e-03 -1.100120499145e-04) (-9.446535778864e-05 -6.633551105308e-04 -3.009466017859e-05))