# y+ ()             
# Time              	patch               	min                 	max                 	average             
509.2433487005      	YMAX	3.463216576517e-01	1.659136490170e+03	2.351673410296e+02
509.2433487005      	ZMIN	4.099230913634e-01	1.331362739385e+02	1.930525274838e+01
509.2433487005      	bc_aft	5.167626429319e-02	2.156278022776e+02	2.543641981603e+01
509.2433487005      	bc_bow	7.347229350073e-02	6.526171709419e+01	3.681656020866e+01
509.2433487005      	bc_deck	7.364127874673e-01	1.628842368459e+01	6.197719359254e+00
509.2433487005      	bc_duct	8.922077832514e-01	1.113365408523e+02	2.223765682894e+01
509.2433487005      	bc_headbox	1.197257341594e+00	5.577547293564e+01	1.325437409742e+01
509.2433487005      	bc_hull	9.723184071863e-02	5.318028168711e+01	2.335121734184e+01
509.2433487005      	bc_hull_coarse	1.523667723027e+00	9.945842063917e+00	2.976106569265e+00
509.2433487005      	bc_rudder	6.845847554201e-01	1.181173715418e+02	2.877191210327e+01
509.2433487005      	bc_shaft	2.297139122421e+00	3.924783542434e+01	1.305090677572e+01
509.2433487005      	bc_skeg	4.904811887369e+00	5.903220516556e+01	2.472198779714e+01
509.2433487005      	bc_transom	4.077059875955e-01	8.644026179444e+01	7.472088390921e+00
509.2433487005      	bc_wake	8.789961329650e-01	1.332962719609e+02	2.548193572346e+01
509.4835824005      	YMAX	3.463080150647e-01	1.659093134154e+03	2.351597757308e+02
509.4835824005      	ZMIN	4.135724407902e-01	1.429904539036e+02	1.922768657977e+01
509.4835824005      	bc_aft	1.258980680878e-01	2.148868135656e+02	2.550041429380e+01
509.4835824005      	bc_bow	8.349058430421e-02	6.524135951788e+01	3.683245045157e+01
509.4835824005      	bc_deck	7.381900641914e-01	1.632315078735e+01	6.201089633834e+00
509.4835824005      	bc_duct	7.006716706214e-01	1.039252998977e+02	1.994124627060e+01
509.4835824005      	bc_headbox	9.531530692115e-01	5.418375896368e+01	1.349932090257e+01
509.4835824005      	bc_hull	1.236271546775e-01	5.311798542531e+01	2.335430620170e+01
509.4835824005      	bc_hull_coarse	1.570325995436e+00	1.000626362249e+01	2.975764480178e+00
509.4835824005      	bc_rudder	3.277766759666e-01	1.074421488756e+02	2.605856418452e+01
509.4835824005      	bc_shaft	1.711150559714e+00	4.207154088112e+01	1.376902570113e+01
509.4835824005      	bc_skeg	4.343244670611e+00	6.419750790874e+01	2.544367311988e+01
509.4835824005      	bc_transom	3.841956458088e-01	9.512415124490e+01	7.006438834595e+00
509.4835824005      	bc_wake	2.418153482005e-01	1.341262370528e+02	2.553605429299e+01
509.7835824005      	YMAX	3.462863633046e-01	1.659667880807e+03	2.351546932661e+02
509.7835824005      	ZMIN	4.168869893288e-01	1.497359656066e+02	1.932614904690e+01
509.7835824005      	bc_aft	1.463138591588e-01	2.148645660324e+02	2.563367711856e+01
509.7835824005      	bc_bow	7.807195915394e-02	6.540475944818e+01	3.682308804408e+01
509.7835824005      	bc_deck	5.428903146606e-01	1.630226348956e+01	6.195559889084e+00
509.7835824005      	bc_duct	1.172812945803e+00	1.064050750630e+02	2.015326429688e+01
509.7835824005      	bc_headbox	7.901087644550e-01	5.527855945084e+01	1.344456772342e+01
509.7835824005      	bc_hull	1.203806553168e-01	5.320656925395e+01	2.335759640881e+01
509.7835824005      	bc_hull_coarse	1.534148125221e+00	1.004843735280e+01	2.962195590899e+00
509.7835824005      	bc_rudder	3.697465004396e-01	1.128394790457e+02	2.520052854854e+01
509.7835824005      	bc_shaft	8.361001028670e-01	4.489950796311e+01	1.378011815992e+01
509.7835824005      	bc_skeg	1.232188147317e+00	6.699367117572e+01	2.490504889252e+01
509.7835824005      	bc_transom	5.483268673095e-01	7.530927763853e+01	6.104825589600e+00
509.7835824005      	bc_wake	8.020875154167e-01	1.338945116509e+02	2.568305239024e+01
510.0835824005      	YMAX	3.463131201221e-01	1.659618791058e+03	2.351427570309e+02
510.0835824005      	ZMIN	4.188636900963e-01	1.337873011040e+02	1.933698275000e+01
510.0835824005      	bc_aft	2.282527762030e-01	2.009584868447e+02	2.559417778553e+01
510.0835824005      	bc_bow	4.402882370454e-02	6.537860507900e+01	3.682392772672e+01
510.0835824005      	bc_deck	6.656368579737e-01	1.627733489075e+01	6.192511477039e+00
510.0835824005      	bc_duct	8.164617481401e-01	1.063984581102e+02	2.150032554292e+01
510.0835824005      	bc_headbox	8.395699102679e-01	5.728841800499e+01	1.266688472257e+01
510.0835824005      	bc_hull	8.209114127643e-02	5.340487802276e+01	2.335951782918e+01
510.0835824005      	bc_hull_coarse	1.488379680926e+00	1.005360666252e+01	2.944078204459e+00
510.0835824005      	bc_rudder	4.026703164650e-01	1.123811695167e+02	2.345960790501e+01
510.0835824005      	bc_shaft	1.686910223252e+00	4.178138046404e+01	1.335420054553e+01
510.0835824005      	bc_skeg	1.422516169189e+00	6.704813025041e+01	3.021769442965e+01
510.0835824005      	bc_transom	4.704637222756e-01	9.805264458829e+01	5.244302220300e+00
510.0835824005      	bc_wake	2.429065379250e-01	1.340265544154e+02	2.579601477671e+01
510.3835824005      	YMAX	3.467479454804e-01	1.659378820372e+03	2.351222842460e+02
510.3835824005      	ZMIN	4.201455691112e-01	1.616545731209e+02	1.952481046505e+01
510.3835824005      	bc_aft	1.800377940749e-01	2.133599643869e+02	2.566473902559e+01
510.3835824005      	bc_bow	8.143985082175e-02	6.539766091133e+01	3.681197459785e+01
510.3835824005      	bc_deck	5.131239441076e-01	1.627524416741e+01	6.194871834608e+00
510.3835824005      	bc_duct	1.236256916969e+00	1.057047432202e+02	2.094730501771e+01
510.3835824005      	bc_headbox	9.806518947109e-01	7.347825815306e+01	1.358399976562e+01
510.3835824005      	bc_hull	5.828028413451e-02	5.322645867697e+01	2.336053692944e+01
510.3835824005      	bc_hull_coarse	1.431738497107e+00	1.006068600513e+01	2.936335947067e+00
510.3835824005      	bc_rudder	3.991141752491e-01	1.063944153683e+02	2.362673073956e+01
510.3835824005      	bc_shaft	2.495752398775e+00	4.120719994923e+01	1.309741423604e+01
510.3835824005      	bc_skeg	5.667643578919e+00	7.966097177597e+01	2.442866981060e+01
510.3835824005      	bc_transom	8.049734915058e-01	8.182127879423e+01	7.454282541250e+00
510.3835824005      	bc_wake	5.163682734651e-01	1.331732353936e+02	2.565091101605e+01
510.6835824005      	YMAX	3.468967865752e-01	1.658922941413e+03	2.351110077547e+02
510.6835824005      	ZMIN	4.195079155143e-01	1.454187905488e+02	1.933372199417e+01
510.6835824005      	bc_aft	1.959682306216e-01	2.111395731588e+02	2.557821569103e+01
510.6835824005      	bc_bow	7.800049432518e-02	6.539612510990e+01	3.681649013855e+01
510.6835824005      	bc_deck	7.363831649159e-01	1.626880515653e+01	6.196819177928e+00
510.6835824005      	bc_duct	1.058953108001e+00	1.000613242143e+02	2.068571118006e+01
510.6835824005      	bc_headbox	9.254245738272e-01	5.194486340427e+01	1.146468166633e+01
510.6835824005      	bc_hull	3.233054197419e-02	5.337599773840e+01	2.336982355745e+01
510.6835824005      	bc_hull_coarse	1.287740635632e+00	1.008009711606e+01	2.942313382152e+00
510.6835824005      	bc_rudder	3.000982288370e-01	1.114396109626e+02	2.512680941420e+01
510.6835824005      	bc_shaft	1.565501667563e+00	3.864009069127e+01	1.233295964538e+01
510.6835824005      	bc_skeg	1.327735475509e+00	5.489909703033e+01	2.232057842514e+01
510.6835824005      	bc_transom	8.100420565954e-01	7.750092032139e+01	9.192889673876e+00
510.6835824005      	bc_wake	5.889101013883e-01	1.319701656448e+02	2.521223172855e+01
510.9835824005      	YMAX	3.466403946414e-01	1.658908165470e+03	2.351220679336e+02
510.9835824005      	ZMIN	4.188975433569e-01	1.632830437639e+02	1.920037663446e+01
510.9835824005      	bc_aft	2.412158640639e-01	2.096093510251e+02	2.551528660475e+01
510.9835824005      	bc_bow	4.187670496041e-02	6.530619341098e+01	3.683703679407e+01
510.9835824005      	bc_deck	7.403623357307e-01	1.629317255705e+01	6.193388882350e+00
510.9835824005      	bc_duct	8.497403606327e-01	9.632040118143e+01	1.981373029341e+01
510.9835824005      	bc_headbox	8.534196177163e-01	4.851885270517e+01	1.123914905766e+01
510.9835824005      	bc_hull	4.434713400362e-02	5.344159650787e+01	2.337670302688e+01
510.9835824005      	bc_hull_coarse	1.238503192133e+00	1.004013615940e+01	2.955101991314e+00
510.9835824005      	bc_rudder	5.520470084582e-01	1.013988941756e+02	2.377987903988e+01
510.9835824005      	bc_shaft	1.243663678430e+00	3.864647753674e+01	1.307698345157e+01
510.9835824005      	bc_skeg	3.933727138358e+00	5.956341440775e+01	2.461073184981e+01
510.9835824005      	bc_transom	9.110106119605e-01	8.893538257443e+01	8.535282274818e+00
510.9835824005      	bc_wake	6.181620127997e-01	1.317443014182e+02	2.499088451421e+01
511.2835824005      	YMAX	3.464958984523e-01	1.659163829138e+03	2.351418802467e+02
511.2835824005      	ZMIN	4.180717228145e-01	1.379649578732e+02	1.920262717827e+01
511.2835824005      	bc_aft	2.369487412047e-01	2.068429501418e+02	2.557067831021e+01
511.2835824005      	bc_bow	6.669639855862e-02	6.546994841245e+01	3.680310635908e+01
511.2835824005      	bc_deck	7.374357577519e-01	1.632107181245e+01	6.186906375293e+00
511.2835824005      	bc_duct	5.136480001501e-01	9.730984970645e+01	1.984934764155e+01
511.2835824005      	bc_headbox	4.837440428503e-01	4.071542790680e+01	1.039878670349e+01
511.2835824005      	bc_hull	9.380375167853e-02	5.341791469321e+01	2.338145578015e+01
511.2835824005      	bc_hull_coarse	1.201929307109e+00	1.003524964132e+01	2.954840380854e+00
511.2835824005      	bc_rudder	2.994703814626e-01	1.021049406863e+02	2.249653902389e+01
511.2835824005      	bc_shaft	1.577085767881e+00	4.054597054520e+01	1.276859721321e+01
511.2835824005      	bc_skeg	3.403543573560e+00	5.967316745309e+01	2.391275309740e+01
511.2835824005      	bc_transom	6.850550076122e-01	8.265481109561e+01	7.056019409454e+00
511.2835824005      	bc_wake	3.652922333868e-01	1.317893487173e+02	2.494345375826e+01
511.5835824005      	YMAX	3.465397020222e-01	1.659354885979e+03	2.351455240621e+02
511.5835824005      	ZMIN	4.176687338464e-01	1.447686442403e+02	1.936133207177e+01
511.5835824005      	bc_aft	3.960399949055e-01	2.103050832162e+02	2.563306700628e+01
511.5835824005      	bc_bow	1.121117734465e-01	6.528331499830e+01	3.684184272215e+01
511.5835824005      	bc_deck	7.372615152739e-01	1.632133226582e+01	6.181479652150e+00
511.5835824005      	bc_duct	1.003981695753e+00	9.896423097202e+01	2.004988841946e+01
511.5835824005      	bc_headbox	6.030422108573e-01	5.384270318843e+01	1.030396888442e+01
511.5835824005      	bc_hull	7.198617401108e-02	5.330911022979e+01	2.338678154823e+01
511.5835824005      	bc_hull_coarse	1.158962304200e+00	1.004850207901e+01	2.943420749909e+00
511.5835824005      	bc_rudder	3.746385703829e-01	9.712842939527e+01	2.168459949847e+01
511.5835824005      	bc_shaft	1.157466971412e+00	3.846447267433e+01	1.250485536857e+01
511.5835824005      	bc_skeg	4.408152272908e+00	6.371308043989e+01	2.277212956393e+01
511.5835824005      	bc_transom	5.974776476139e-01	7.649460592072e+01	6.196193844515e+00
511.5835824005      	bc_wake	3.604112379272e-01	1.314421889746e+02	2.481343893677e+01
511.8835824005      	YMAX	3.470010432885e-01	1.659305493317e+03	2.351330690832e+02
511.8835824005      	ZMIN	4.152735339954e-01	1.337784056495e+02	1.927853688152e+01
511.8835824005      	bc_aft	3.983727431036e-01	2.147359168703e+02	2.560998693441e+01
511.8835824005      	bc_bow	7.422000881272e-02	6.537077773718e+01	3.684756476874e+01
511.8835824005      	bc_deck	7.340612276560e-01	1.630324166624e+01	6.172726263268e+00
511.8835824005      	bc_duct	4.282170634785e-01	9.597021485841e+01	2.002748813951e+01
511.8835824005      	bc_headbox	4.521010683325e-01	5.215893946949e+01	1.094465841543e+01
511.8835824005      	bc_hull	5.982204580763e-02	5.333823869621e+01	2.339220970565e+01
511.8835824005      	bc_hull_coarse	1.169732526706e+00	1.004052035211e+01	2.929050000625e+00
511.8835824005      	bc_rudder	4.600678733631e-01	1.004542455859e+02	2.255526580474e+01
511.8835824005      	bc_shaft	1.371627825120e+00	3.686326755231e+01	1.214519243745e+01
511.8835824005      	bc_skeg	4.205961278155e+00	5.151158810664e+01	2.217059222894e+01
511.8835824005      	bc_transom	6.479213709238e-01	7.222939511620e+01	5.379510635320e+00
511.8835824005      	bc_wake	5.000246622431e-01	1.310102177716e+02	2.462363344025e+01
512.1835824005      	YMAX	3.469582406658e-01	1.659235318939e+03	2.351175893127e+02
512.1835824005      	ZMIN	4.119954178914e-01	1.263205143940e+02	1.910822586277e+01
512.1835824005      	bc_aft	3.490440570403e-01	2.110308623465e+02	2.554720097814e+01
512.1835824005      	bc_bow	1.216251687918e-01	6.531330097937e+01	3.683672600889e+01
512.1835824005      	bc_deck	7.374540554344e-01	1.629392368436e+01	6.162419084714e+00
512.1835824005      	bc_duct	5.986198235719e-01	9.616505651675e+01	1.927962776054e+01
512.1835824005      	bc_headbox	5.581253594316e-01	4.526962881112e+01	1.096334282009e+01
512.1835824005      	bc_hull	3.924208235492e-02	5.331225458978e+01	2.339569748671e+01
512.1835824005      	bc_hull_coarse	1.055922557346e+00	1.002280126125e+01	2.912590994521e+00
512.1835824005      	bc_rudder	2.327926602070e-01	9.482218009444e+01	2.261769310304e+01
512.1835824005      	bc_shaft	1.496245050541e+00	3.900669068629e+01	1.231903431053e+01
512.1835824005      	bc_skeg	2.398848637828e+00	5.797215512176e+01	2.317138097267e+01
512.1835824005      	bc_transom	6.705393512364e-01	6.720897660666e+01	5.788490449749e+00
512.1835824005      	bc_wake	3.394206805096e-01	1.303158319797e+02	2.453257537333e+01
512.4835824005      	YMAX	3.468293619808e-01	1.659735536694e+03	2.351154430095e+02
512.4835824005      	ZMIN	4.093137092379e-01	1.495616694297e+02	1.906071674722e+01
512.4835824005      	bc_aft	2.915951764364e-01	2.101614585087e+02	2.551013213816e+01
512.4835824005      	bc_bow	1.787270274022e-01	6.544930517564e+01	3.680760078836e+01
512.4835824005      	bc_deck	7.408092328262e-01	1.629519911713e+01	6.158307621377e+00
512.4835824005      	bc_duct	5.049672974920e-01	9.516741601477e+01	1.892768236306e+01
512.4835824005      	bc_headbox	3.713373330012e-01	4.791396642408e+01	1.104066951223e+01
512.4835824005      	bc_hull	1.080465804717e-01	5.359243747346e+01	2.339797175667e+01
512.4835824005      	bc_hull_coarse	9.749497154347e-01	1.001550828542e+01	2.901769347246e+00
512.4835824005      	bc_rudder	2.773670039111e-01	9.721809193020e+01	2.209740264690e+01
512.4835824005      	bc_shaft	1.536390665211e+00	3.680552070763e+01	1.236720201802e+01
512.4835824005      	bc_skeg	3.324629609371e+00	8.285181320650e+01	2.637620795111e+01
512.4835824005      	bc_transom	5.735436769575e-01	8.118538715210e+01	6.174034344156e+00
512.4835824005      	bc_wake	4.272956384593e-01	1.301445643027e+02	2.460868799650e+01
512.7835824005      	YMAX	3.467213395747e-01	1.660288056208e+03	2.351220106006e+02
512.7835824005      	ZMIN	4.074893905092e-01	1.224848220711e+02	1.914743923667e+01
512.7835824005      	bc_aft	1.767060644546e-01	2.137637422617e+02	2.552714101734e+01
512.7835824005      	bc_bow	8.962990949015e-02	6.540149988504e+01	3.683906463218e+01
512.7835824005      	bc_deck	6.817314633126e-01	1.630003458426e+01	6.154306502372e+00
512.7835824005      	bc_duct	5.654417862786e-01	9.810184970532e+01	1.910910531934e+01
512.7835824005      	bc_headbox	6.265975543451e-01	4.708975953477e+01	1.042450198086e+01
512.7835824005      	bc_hull	4.192111375183e-02	5.337606668022e+01	2.339399368649e+01
512.7835824005      	bc_hull_coarse	1.048715096803e+00	1.000556277532e+01	2.897075493288e+00
512.7835824005      	bc_rudder	2.745306052299e-01	9.699414102601e+01	2.190849574104e+01
512.7835824005      	bc_shaft	1.485679106681e+00	3.698654302300e+01	1.202377393204e+01
512.7835824005      	bc_skeg	6.126716064703e+00	1.002389777710e+02	2.626925451391e+01
512.7835824005      	bc_transom	5.272691977175e-01	6.681079916448e+01	5.426742387681e+00
512.7835824005      	bc_wake	3.753650365052e-01	1.306330933810e+02	2.477599525023e+01
513.0835824005      	YMAX	3.467557929153e-01	1.660145737403e+03	2.351244918758e+02
513.0835824005      	ZMIN	4.065987889405e-01	1.102465345237e+02	1.929167844532e+01
513.0835824005      	bc_aft	1.274245992072e-01	2.136293098954e+02	2.539270231388e+01
513.0835824005      	bc_bow	6.917374181955e-02	6.540156517721e+01	3.684013650717e+01
513.0835824005      	bc_deck	6.794988646543e-01	1.629741975160e+01	6.148289989169e+00
513.0835824005      	bc_duct	5.635800212145e-01	9.870416673114e+01	1.896942221561e+01
513.0835824005      	bc_headbox	8.299813189017e-01	5.246036096144e+01	1.173541833766e+01
513.0835824005      	bc_hull	4.672173608650e-02	5.366405821788e+01	2.338615404306e+01
513.0835824005      	bc_hull_coarse	9.962005221717e-01	1.003535699949e+01	2.910300132517e+00
513.0835824005      	bc_rudder	3.319999300812e-01	9.740708835183e+01	2.198128824252e+01
513.0835824005      	bc_shaft	2.139793889236e+00	3.720215550610e+01	1.220904821140e+01
513.0835824005      	bc_skeg	2.544862636333e+00	1.087004356651e+02	2.680770886675e+01
513.0835824005      	bc_transom	3.825137113826e-01	7.302757419442e+01	6.231288094247e+00
513.0835824005      	bc_wake	4.822578603205e-01	1.305987631142e+02	2.484677174298e+01
513.3835824005      	YMAX	3.468691476101e-01	1.659898566979e+03	2.351233169994e+02
513.3835824005      	ZMIN	4.065566294483e-01	1.096557310895e+02	1.938745933822e+01
513.3835824005      	bc_aft	1.099796621865e-01	2.144485148451e+02	2.536930284059e+01
513.3835824005      	bc_bow	5.557137212176e-02	6.532723423355e+01	3.686531779814e+01
513.3835824005      	bc_deck	7.371565831103e-01	1.631608926842e+01	6.143421516424e+00
513.3835824005      	bc_duct	4.887414187903e-01	9.781183084550e+01	1.882620677791e+01
513.3835824005      	bc_headbox	6.018155759613e-01	5.862519277739e+01	1.167777833832e+01
513.3835824005      	bc_hull	4.248121566850e-02	5.372921449833e+01	2.337518045666e+01
513.3835824005      	bc_hull_coarse	1.080590243778e+00	1.002716855626e+01	2.935098381227e+00
513.3835824005      	bc_rudder	2.431704212180e-01	9.906385524831e+01	2.321581478907e+01
513.3835824005      	bc_shaft	1.491767811102e+00	3.571847975248e+01	1.161314663980e+01
513.3835824005      	bc_skeg	7.252296983219e+00	1.145694883354e+02	2.696090168084e+01
513.3835824005      	bc_transom	4.646958498700e-01	7.518283047126e+01	6.810621114841e+00
513.3835824005      	bc_wake	4.188825135733e-01	1.294286779299e+02	2.475582579617e+01
513.6835824005      	YMAX	3.468085476112e-01	1.659855134065e+03	2.351196937836e+02
513.6835824005      	ZMIN	4.071514292858e-01	9.635252298825e+01	1.918451842219e+01
513.6835824005      	bc_aft	1.226696138671e-01	2.143320239263e+02	2.532791173419e+01
513.6835824005      	bc_bow	9.614535931732e-02	6.530182113183e+01	3.683941258524e+01
513.6835824005      	bc_deck	7.368881374954e-01	1.631953008536e+01	6.140608418107e+00
513.6835824005      	bc_duct	5.326012549199e-01	9.504548109291e+01	1.888899673141e+01
513.6835824005      	bc_headbox	7.439003981263e-01	5.839749586042e+01	1.127588795465e+01
513.6835824005      	bc_hull	6.746632938506e-02	5.364122247261e+01	2.336607983944e+01
513.6835824005      	bc_hull_coarse	9.895367005436e-01	1.006910699765e+01	2.957808379521e+00
513.6835824005      	bc_rudder	3.532717018452e-01	9.671897895763e+01	2.117115733924e+01
513.6835824005      	bc_shaft	1.428495541991e+00	3.478550358037e+01	1.143185596403e+01
513.6835824005      	bc_skeg	4.709019154810e+00	5.780784933744e+01	2.396171362230e+01
513.6835824005      	bc_transom	3.311637957787e-01	7.344135580739e+01	6.204204763435e+00
513.6835824005      	bc_wake	5.334036041843e-01	1.289564506116e+02	2.464252597563e+01
513.9835824005      	YMAX	3.468171807060e-01	1.659962988435e+03	2.351173938996e+02
513.9835824005      	ZMIN	4.080670338637e-01	1.295603301553e+02	1.901167206331e+01
513.9835824005      	bc_aft	1.145231874672e-01	2.158641404244e+02	2.522965915483e+01
513.9835824005      	bc_bow	4.989648079558e-02	6.534463301912e+01	3.685856677904e+01
513.9835824005      	bc_deck	7.366364104789e-01	1.632098289214e+01	6.138329853711e+00
513.9835824005      	bc_duct	4.852508091301e-01	9.623269791252e+01	1.890304117562e+01
513.9835824005      	bc_headbox	1.036890217139e+00	5.680887486106e+01	1.075569783011e+01
513.9835824005      	bc_hull	2.831008741072e-02	5.335326500317e+01	2.335501679189e+01
513.9835824005      	bc_hull_coarse	1.003289329975e+00	1.006241355605e+01	2.970393936282e+00
513.9835824005      	bc_rudder	4.852139334527e-01	8.854969155017e+01	2.031069858194e+01
513.9835824005      	bc_shaft	1.478267498007e+00	3.435034003139e+01	1.121950652028e+01
513.9835824005      	bc_skeg	3.017461275591e+00	5.975710939054e+01	2.438294108271e+01
513.9835824005      	bc_transom	2.640735851681e-01	7.191121196105e+01	6.829763994588e+00
513.9835824005      	bc_wake	4.581503375337e-01	1.295897227887e+02	2.472843392591e+01
514.2835824005      	YMAX	3.468880540161e-01	1.659741021598e+03	2.351211278587e+02
514.2835824005      	ZMIN	4.089853915220e-01	9.595475526392e+01	1.898645363934e+01
514.2835824005      	bc_aft	1.221227269999e-01	2.158573667665e+02	2.518569759788e+01
514.2835824005      	bc_bow	8.346775582590e-02	6.534340134629e+01	3.687193519108e+01
514.2835824005      	bc_deck	7.375564370455e-01	1.632617836593e+01	6.137925550051e+00
514.2835824005      	bc_duct	4.443455646192e-01	1.003971447830e+02	1.870423923536e+01
514.2835824005      	bc_headbox	1.253011933603e+00	5.312446535184e+01	1.124381168450e+01
514.2835824005      	bc_hull	4.867535455971e-02	5.352754830223e+01	2.334671616221e+01
514.2835824005      	bc_hull_coarse	1.008081275714e+00	1.006742842914e+01	2.980387036225e+00
514.2835824005      	bc_rudder	4.813782204931e-01	9.059612282035e+01	2.074751399507e+01
514.2835824005      	bc_shaft	1.622407632529e+00	3.418835124000e+01	1.145727937594e+01
514.2835824005      	bc_skeg	3.983392583902e+00	7.455206098789e+01	2.551564373601e+01
514.2835824005      	bc_transom	4.530411516225e-01	7.342852834504e+01	7.098771962103e+00
514.2835824005      	bc_wake	5.485033963017e-01	1.301561322900e+02	2.484845215428e+01
514.5835824005      	YMAX	3.469526502408e-01	1.659164470047e+03	2.351319961262e+02
514.5835824005      	ZMIN	4.096568218976e-01	9.719711582348e+01	1.900189999327e+01
514.5835824005      	bc_aft	1.311255547686e-01	2.137346724635e+02	2.521512688672e+01
514.5835824005      	bc_bow	6.202411078335e-02	6.544106058777e+01	3.686345315989e+01
514.5835824005      	bc_deck	6.271120276635e-01	1.633274247616e+01	6.137955763788e+00
514.5835824005      	bc_duct	9.989639133651e-01	1.017848054244e+02	1.881509551417e+01
514.5835824005      	bc_headbox	1.176443610906e+00	5.145402893444e+01	1.085339703128e+01
514.5835824005      	bc_hull	6.729794756845e-02	5.322178279479e+01	2.333572638996e+01
514.5835824005      	bc_hull_coarse	1.028512145224e+00	1.001701794014e+01	2.996518971457e+00
514.5835824005      	bc_rudder	5.397416238837e-01	9.220114335370e+01	2.172114273453e+01
514.5835824005      	bc_shaft	2.087261937611e+00	3.487873661931e+01	1.169302268223e+01
514.5835824005      	bc_skeg	5.811267159126e+00	6.541959847480e+01	2.450882776798e+01
514.5835824005      	bc_transom	3.908593864776e-01	7.578821004833e+01	7.216457903185e+00
514.5835824005      	bc_wake	5.601712800823e-01	1.301712788611e+02	2.486991466786e+01
514.8835824005      	YMAX	3.471439228483e-01	1.658883792884e+03	2.351379871639e+02
514.8835824005      	ZMIN	4.090663459158e-01	1.233704073547e+02	1.901349643920e+01
514.8835824005      	bc_aft	1.379276665809e-01	2.135683193350e+02	2.532083686238e+01
514.8835824005      	bc_bow	8.444434751699e-02	6.537358347634e+01	3.685600885448e+01
514.8835824005      	bc_deck	6.247874147584e-01	1.633999216496e+01	6.136214688384e+00
514.8835824005      	bc_duct	7.355841078701e-01	9.880516200397e+01	1.903107765636e+01
514.8835824005      	bc_headbox	7.080514164024e-01	4.894520594166e+01	9.696159988579e+00
514.8835824005      	bc_hull	5.979760576330e-02	5.340514421492e+01	2.332990914487e+01
514.8835824005      	bc_hull_coarse	9.027096899133e-01	1.003411314313e+01	3.011697165915e+00
514.8835824005      	bc_rudder	4.420600795534e-01	8.850160560612e+01	2.166375845109e+01
514.8835824005      	bc_shaft	2.553027735501e+00	3.507347934151e+01	1.220950112115e+01
514.8835824005      	bc_skeg	3.779664378034e+00	6.204478206535e+01	2.449069588490e+01
514.8835824005      	bc_transom	4.648889271079e-01	8.372138123648e+01	7.576415813128e+00
514.8835824005      	bc_wake	5.070062319215e-01	1.299690305931e+02	2.489337478119e+01
515.1835824005      	YMAX	3.474199713810e-01	1.658796376744e+03	2.351306796517e+02
515.1835824005      	ZMIN	4.075612467923e-01	1.161365073822e+02	1.896371912772e+01
515.1835824005      	bc_aft	1.854760974845e-01	2.115525433759e+02	2.527852556518e+01
515.1835824005      	bc_bow	9.605940738206e-02	6.540960706628e+01	3.685723686860e+01
515.1835824005      	bc_deck	6.210445760973e-01	1.634142480872e+01	6.133232516108e+00
515.1835824005      	bc_duct	8.502294029873e-01	9.668672395230e+01	1.871456226228e+01
515.1835824005      	bc_headbox	6.657761453645e-01	4.589229951555e+01	9.606516852064e+00
515.1835824005      	bc_hull	3.606512257251e-02	5.345906321207e+01	2.332965533305e+01
515.1835824005      	bc_hull_coarse	9.487466579998e-01	1.008352723356e+01	3.013133024253e+00
515.1835824005      	bc_rudder	5.141405704967e-01	9.125381830436e+01	2.193122164179e+01
515.1835824005      	bc_shaft	2.498525104393e+00	3.495330723535e+01	1.200888865774e+01
515.1835824005      	bc_skeg	2.416686489228e+00	7.268334454964e+01	2.498795557220e+01
515.1835824005      	bc_transom	4.091598135543e-01	8.660926373499e+01	7.167406456522e+00
515.1835824005      	bc_wake	5.683890920991e-01	1.296109644816e+02	2.489070501218e+01
515.4835824005      	YMAX	3.472798851318e-01	1.658387832071e+03	2.351223854123e+02
515.4835824005      	ZMIN	4.067243928177e-01	1.176941624181e+02	1.892781876396e+01
515.4835824005      	bc_aft	1.766913396868e-01	2.114029750293e+02	2.530829166233e+01
515.4835824005      	bc_bow	6.698595093214e-02	6.540461535871e+01	3.689114809762e+01
515.4835824005      	bc_deck	7.355145718353e-01	1.634986654815e+01	6.128583003473e+00
515.4835824005      	bc_duct	6.597159045761e-01	9.908901335733e+01	1.853756837214e+01
515.4835824005      	bc_headbox	1.044174055418e+00	4.645097465262e+01	9.834622547596e+00
515.4835824005      	bc_hull	4.909847163611e-02	5.355684001816e+01	2.332782666554e+01
515.4835824005      	bc_hull_coarse	1.004993210118e+00	1.007478746340e+01	3.004756789794e+00
515.4835824005      	bc_rudder	4.060833315071e-01	9.137702197313e+01	2.186307482337e+01
515.4835824005      	bc_shaft	1.477886217172e+00	3.459431283406e+01	1.149726219672e+01
515.4835824005      	bc_skeg	5.080111510069e+00	1.072682247114e+02	2.703706731147e+01
515.4835824005      	bc_transom	2.734112331029e-01	8.989334815032e+01	7.399724493847e+00
515.4835824005      	bc_wake	4.480126115903e-01	1.298934501417e+02	2.498990216238e+01
515.7835824005      	YMAX	3.469985340648e-01	1.658021791875e+03	2.351226748438e+02
515.7835824005      	ZMIN	4.064523820394e-01	1.005397597256e+02	1.899779807020e+01
515.7835824005      	bc_aft	1.760652262424e-01	2.098384629966e+02	2.531849435238e+01
515.7835824005      	bc_bow	2.636392258113e-02	6.541550691645e+01	3.688479115960e+01
515.7835824005      	bc_deck	6.927779672005e-01	1.636957033187e+01	6.124194323999e+00
515.7835824005      	bc_duct	9.707318417404e-01	1.022676487405e+02	1.893207649112e+01
515.7835824005      	bc_headbox	1.388822642041e+00	4.897024727350e+01	1.094878938737e+01
515.7835824005      	bc_hull	4.843397677901e-02	5.372913624583e+01	2.333111958991e+01
515.7835824005      	bc_hull_coarse	9.672060968910e-01	1.003192640390e+01	2.997058525358e+00
515.7835824005      	bc_rudder	5.602938453987e-01	9.329953483075e+01	2.187735376624e+01
515.7835824005      	bc_shaft	1.930604975223e+00	3.399190515964e+01	1.130794748013e+01
515.7835824005      	bc_skeg	5.937282385263e+00	9.487859039851e+01	2.752868832624e+01
515.7835824005      	bc_transom	4.774990134168e-01	9.076432093702e+01	8.039013905016e+00
515.7835824005      	bc_wake	3.896661077594e-01	1.302825355987e+02	2.506423185761e+01
516.0835824005      	YMAX	3.467618894729e-01	1.658048797479e+03	2.351192932146e+02
516.0835824005      	ZMIN	4.066965402574e-01	1.236233781175e+02	1.926116931390e+01
516.0835824005      	bc_aft	1.937492858667e-01	2.150486587610e+02	2.536420152525e+01
516.0835824005      	bc_bow	8.914670994216e-02	6.547575178014e+01	3.689209127987e+01
516.0835824005      	bc_deck	5.160012206328e-01	1.636142458640e+01	6.121017413434e+00
516.0835824005      	bc_duct	1.065609746320e+00	1.024375400038e+02	1.939782683623e+01
516.0835824005      	bc_headbox	1.633080783895e+00	5.363032697490e+01	1.263232008543e+01
516.0835824005      	bc_hull	2.027282554381e-02	5.342668151665e+01	2.333314291017e+01
516.0835824005      	bc_hull_coarse	9.402410086251e-01	1.004554498850e+01	2.998531968924e+00
516.0835824005      	bc_rudder	5.286093244768e-01	8.164778577099e+01	2.065364733041e+01
516.0835824005      	bc_shaft	1.442519688057e+00	3.433148400475e+01	1.160270093887e+01
516.0835824005      	bc_skeg	4.535879651767e+00	8.346442529005e+01	2.963675359140e+01
516.0835824005      	bc_transom	3.983513499880e-01	9.473001473465e+01	8.860503104047e+00
516.0835824005      	bc_wake	4.763307216018e-01	1.302595959186e+02	2.511076960056e+01
516.3835824006      	YMAX	3.466393714126e-01	1.657910441492e+03	2.351026445289e+02
516.3835824006      	ZMIN	4.074138122777e-01	1.236805520024e+02	1.928400080372e+01
516.3835824006      	bc_aft	1.782101124672e-01	2.089821864847e+02	2.540641044761e+01
516.3835824006      	bc_bow	6.961179624777e-02	6.548100055089e+01	3.688504568483e+01
516.3835824006      	bc_deck	5.494070321529e-01	1.636071244950e+01	6.119259948888e+00
516.3835824006      	bc_duct	9.802775259376e-01	9.801700822521e+01	1.936908171274e+01
516.3835824006      	bc_headbox	1.099065600600e+00	5.529667388170e+01	1.138189187289e+01
516.3835824006      	bc_hull	6.020442776961e-02	5.348959684261e+01	2.333472343272e+01
516.3835824006      	bc_hull_coarse	9.645731985575e-01	1.004857086086e+01	3.014724366826e+00