# Forces            
# CofR              : (1.500000000000e+00 0.000000000000e+00 5.000000000000e-01)
# Time              forces(pressure viscous)	moments(pressure viscous)
0                   	((0.000000000000e+00 0.000000000000e+00 0.000000000000e+00) (-3.963063810120e-01 1.037448583469e-28 3.898991572605e-15)) ((0.000000000000e+00 0.000000000000e+00 0.000000000000e+00) (6.972660848281e-16 1.783361655528e-01 8.287992155210e-02))
0.00667             	((2.340198340040e-02 -3.509602473771e-04 2.427973399946e+03) (-3.907056709306e-01 -1.287084252708e-01 4.430302310545e-02)) ((4.696316528043e+02 3.027202586850e+03 -4.088959268287e-03) (-4.713289275779e-02 2.237993024559e-01 2.332688073810e-01))
0.01334             	((-1.118696422824e-01 4.535131276926e-04 -1.231960217770e+03) (-2.987133218436e-01 -9.289873350551e-02 2.295628234021e-02)) ((-2.368387731201e+02 -1.541078365742e+03 2.093912544905e-02) (-3.593643893013e-02 1.589711204170e-01 1.718558460562e-01))
0.02001             	((5.541746195862e-02 -8.231575593507e-05 1.712649257899e+02) (-2.690922760495e-01 -8.525042177899e-02 1.984685222778e-02)) ((3.303032495721e+01 2.137257335904e+02 -1.058514329739e-02) (-3.313931076885e-02 1.420211591776e-01 1.569608327476e-01))
0.02668             	((7.802695957204e-02 -6.878246254490e-05 1.089762393908e+02) (-2.693025426051e-01 -8.623168201087e-02 2.184082685150e-02)) ((2.164939746661e+01 1.344566769080e+02 -1.541609812239e-02) (-3.311367062401e-02 1.443644068074e-01 1.585825632461e-01))
0.03335             	((-8.093610681455e-02 5.193431174000e-05 -6.461812193619e+01) (-2.554894910530e-01 -7.862692053280e-02 2.111351631352e-02)) ((-1.202364815664e+01 -8.263158354163e+01 1.499356261122e-02) (-2.996414563503e-02 1.377153910327e-01 1.472772652804e-01))
0.04002             	((6.496806989266e-02 -3.155474084247e-05 3.348764354858e+01) (-2.448078959860e-01 -7.329248276394e-02 2.065617437780e-02)) ((7.039720666546e+00 3.997617197062e+01 -1.361981848224e-02) (-2.776233594056e-02 1.327017801840e-01 1.393613651239e-01))
0.04669             	((6.578880834623e-02 -2.600765421545e-05 2.369512620695e+01) (-2.360274796190e-01 -6.811640036392e-02 2.023080596175e-02)) ((5.236308400774e+00 2.748995028325e+01 -1.450828063494e-02) (-2.561949262303e-02 1.286294121976e-01 1.321477473284e-01))
0.05336             	((5.637025136258e-02 -1.858484450892e-05 1.499996281879e+01) (-2.270950115223e-01 -6.179657196365e-02 1.934934063238e-02)) ((3.637332104721e+00 1.632314240644e+01 -1.364896463000e-02) (-2.307756360420e-02 1.240486460841e-01 1.237320540201e-01))
0.06003             	((1.146052582605e-01 -3.228982340157e-05 2.346656276873e+01) (-2.189627068385e-01 -5.518523258717e-02 1.827667259431e-02)) ((5.374440935774e+00 2.666614649502e+01 -2.621083250841e-02) (-2.044767814404e-02 1.196251673779e-01 1.152366343576e-01))
0.0667              	((1.499822394561e-01 -3.667472558374e-05 2.438475921674e+01) (-2.113386210927e-01 -4.863904962727e-02 1.744127626193e-02)) ((5.637381302120e+00 2.756258721011e+01 -3.463213290401e-02) (-1.777166937639e-02 1.156736480626e-01 1.068924284668e-01))
0.07337             	((1.891761643562e-01 -4.063925304430e-05 2.503539556681e+01) (-2.041427454661e-01 -4.228373441153e-02 1.674348804435e-02)) ((5.869419912190e+00 2.806207926874e+01 -4.430582776577e-02) (-1.512399940565e-02 1.120285701304e-01 9.878104725173e-02))
0.08337             	((2.774746235421e-01 -4.991226210912e-05 2.798261890186e+01) (-1.955571553205e-01 -3.369207867933e-02 1.643986153508e-02)) ((6.589426571193e+00 3.130922174505e+01 -6.528466651062e-02) (-1.136030075276e-02 1.083787193813e-01 8.800003536489e-02))
0.09337             	((3.910989950700e-01 -5.993609859749e-05 3.111547820618e+01) (-1.868067638732e-01 -2.559274616198e-02 1.633091544061e-02)) ((7.314870259868e+00 3.492695931120e+01 -9.187533622530e-02) (-7.719101735395e-03 1.048231661420e-01 7.761965022140e-02))
0.10337             	((5.235096112803e-01 -6.929943471083e-05 3.376342546973e+01) (-1.789696232127e-01 -1.790892243549e-02 1.635128579109e-02)) ((7.949836652627e+00 3.791724521814e+01 -1.231862050195e-01) (-4.188218044159e-03 1.018122945448e-01 6.781272183250e-02))
0.11337             	((6.891889604372e-01 -7.948354232032e-05 3.683466879976e+01) (-1.720026895966e-01 -1.083197403078e-02 1.654030165008e-02)) ((8.664142852461e+00 4.144587327492e+01 -1.620195738194e-01) (-8.489383024757e-04 9.938988219324e-02 5.875606802400e-02))
0.12337             	((8.730548423245e-01 -8.841838011235e-05 3.938027966141e+01) (-1.658900759664e-01 -4.327177750661e-03 1.664240857491e-02)) ((9.279267835285e+00 4.431308310768e+01 -2.056204703314e-01) (2.242256541033e-03 9.727026267191e-02 5.040389516345e-02))
0.13337             	((1.095359397952e+00 -9.771310679553e-05 4.234617009233e+01) (-1.606239291906e-01 1.602911933700e-03 1.654121671981e-02)) ((9.960659977586e+00 4.776548145910e+01 -2.575400603843e-01) (5.043567198605e-03 9.533905836028e-02 4.277130593312e-02))
0.14337             	((1.340677338068e+00 -1.056282314950e-04 4.501512272980e+01) (-1.561544141621e-01 7.086591481885e-03 1.615413664149e-02)) ((1.058344710927e+01 5.085187176128e+01 -3.150855855676e-01) (7.588473553570e-03 9.349034674456e-02 3.572031684481e-02))
0.15337             	((1.617144373989e+00 -1.124701590342e-04 4.770602689965e+01) (-1.523987106746e-01 1.218514058951e-02 1.559486907907e-02)) ((1.120244098056e+01 5.399541714990e+01 -3.796143319910e-01) (9.936834622579e-03 9.180586523669e-02 2.917628384758e-02))
0.16337             	((1.924406720513e+00 -1.177810724754e-04 5.038894676068e+01) (-1.492889577815e-01 1.690340318495e-02 1.505041314595e-02)) ((1.180952978441e+01 5.716854239550e+01 -4.508846993534e-01) (1.214268638271e-02 9.045294624962e-02 2.313145031895e-02))
0.17337             	((2.253452876837e+00 -1.208067725471e-04 5.285003129382e+01) (-1.467713318107e-01 2.126554370260e-02 1.464664097147e-02)) ((1.236555337231e+01 6.009058684977e+01 -5.271128850563e-01) (1.425336532544e-02 8.953327885944e-02 1.755908277130e-02))
0.18337             	((2.613721682784e+00 -1.216590822079e-04 5.535657803211e+01) (-1.448192507598e-01 2.525194125725e-02 1.444578509763e-02)) ((1.291989007267e+01 6.310884214485e+01 -6.098881155308e-01) (1.627416185049e-02 8.911200376930e-02 1.248905197166e-02))
0.19337             	((2.995249887599e+00 -1.195701760693e-04 5.771502834170e+01) (-1.434147411971e-01 2.887822753753e-02 1.437930013553e-02)) ((1.343986911067e+01 6.596193391134e+01 -6.973552733039e-01) (1.819030779278e-02 8.911583465709e-02 7.913784101994e-03))
0.20337             	((3.400068992137e+00 -1.142723442303e-04 6.001439395081e+01) (-1.425323948830e-01 3.215589770050e-02 1.439117442079e-02)) ((1.393965200397e+01 6.877331993018e+01 -7.896092342474e-01) (1.998756035051e-02 8.947975427776e-02 3.820346306671e-03))
0.21337             	((3.824364101652e+00 -1.052819663199e-04 6.222745549521e+01) (-1.421374187720e-01 3.510460256144e-02 1.444932718086e-02)) ((1.441543669539e+01 7.150057094370e+01 -8.858204219990e-01) (2.166249685094e-02 9.016252181606e-02 1.853558863858e-04))
0.22337             	((4.262910872840e+00 -9.222778667125e-05 6.431921131777e+01) (-1.422136321587e-01 3.776176494265e-02 1.452731998164e-02)) ((1.486045443370e+01 7.410049097719e+01 -9.848062088860e-01) (2.322285239594e-02 9.113460048753e-02 -3.030165514384e-03))
0.23337             	((4.713280648978e+00 -7.482186721225e-05 6.630853878158e+01) (-1.427651090413e-01 4.015645817197e-02 1.465511811850e-02)) ((1.527754548358e+01 7.660063215466e+01 -1.085857559407e+00) (2.468848296516e-02 9.243843843985e-02 -5.849986257792e-03))
0.24337             	((5.167434098211e+00 -5.275479107551e-05 6.813986556321e+01) (-1.438042937037e-01 4.232771581376e-02 1.486156369961e-02)) ((1.565662399660e+01 7.892879298124e+01 -1.187269862688e+00) (2.608472647041e-02 9.411923304249e-02 -8.308156098294e-03))
0.25337             	((5.623606314981e+00 -2.582702637428e-05 6.985212819563e+01) (-1.453336135681e-01 4.430947067092e-02 1.516647494013e-02)) ((1.600424532342e+01 8.113967091867e+01 -1.288428596173e+00) (2.743229532216e-02 9.620467433019e-02 -1.043826939600e-02))
0.26337             	((6.074103403959e+00 6.105432605848e-06 7.140876485835e+01) (-1.473396122706e-01 4.611400979787e-02 1.558817271747e-02)) ((1.631424748014e+01 8.318334819413e+01 -1.387713878246e+00) (2.874018407744e-02 9.871229533447e-02 -1.225821486785e-02))
0.27337             	((6.517115752695e+00 4.301897775869e-05 7.284827617797e+01) (-1.498051829660e-01 4.775129738934e-02 1.612999534276e-02)) ((1.659640504628e+01 8.510292146693e+01 -1.484789475890e+00) (3.001234563684e-02 1.016436493711e-01 -1.378230026371e-02))
0.28337             	((6.947552416025e+00 8.478396983833e-05 7.416817639108e+01) (-1.527218076161e-01 4.925705849204e-02 1.677484113277e-02)) ((1.685076043291e+01 8.689224171070e+01 -1.578559890825e+00) (3.126139530902e-02 1.049833341754e-01 -1.505107808043e-02))
0.29337             	((7.357936899715e+00 1.311657094628e-04 7.534264990249e+01) (-1.560911549181e-01 5.068989506506e-02 1.749892247551e-02)) ((1.707224569163e+01 8.852022343935e+01 -1.667423663965e+00) (3.251137825378e-02 1.087158435131e-01 -1.612907812527e-02))
0.30337             	((7.745641739324e+00 1.819488178377e-04 7.639750646063e+01) (-1.599132010259e-01 5.210077379721e-02 1.828157390125e-02)) ((1.726690588383e+01 9.001568190553e+01 -1.750837839695e+00) (3.378398720794e-02 1.128279832332e-01 -1.707235233197e-02))
0.31337             	((8.106375059784e+00 2.367146941210e-04 7.733820336465e+01) (-1.641849289130e-01 5.351635820937e-02 1.911232926668e-02)) ((1.743659517865e+01 9.138367422914e+01 -1.827935043636e+00) (3.509169374582e-02 1.173133139577e-01 -1.791351689829e-02))
0.32337             	((8.433027959603e+00 2.948520232935e-04 7.814213805007e+01) (-1.689103899392e-01 5.494311469713e-02 1.997768165505e-02)) ((1.757750393002e+01 9.259463966853e+01 -1.897297508339e+00) (3.643468780994e-02 1.221689976704e-01 -1.865978675439e-02))
0.33337             	((8.723869318961e+00 3.558920663115e-04 7.883569877487e+01) (-1.740965855823e-01 5.637438071381e-02 2.087178590954e-02)) ((1.769502082698e+01 9.368259084674e+01 -1.958533920306e+00) (3.780860550961e-02 1.273989162767e-01 -1.929928812734e-02))
0.34337             	((8.974745591262e+00 4.191699811545e-04 7.941873609360e+01) (-1.797589187171e-01 5.780597688943e-02 2.179883975782e-02)) ((1.778968855095e+01 9.464754590291e+01 -2.010830317348e+00) (3.921323754045e-02 1.330191264331e-01 -1.982382947337e-02))
0.35337             	((9.182315906259e+00 4.838936353690e-04 7.989524471777e+01) (-1.859117643534e-01 5.924193531627e-02 2.275229003494e-02)) ((1.786242165128e+01 9.549578987892e+01 -2.053496535836e+00) (4.064969179400e-02 1.390380752459e-01 -2.023580379388e-02))
0.36337             	((9.341753713457e+00 5.491999132046e-04 8.025278512117e+01) (-1.925793938345e-01 6.068888548329e-02 2.371384911073e-02)) ((1.791167859907e+01 9.620730716698e+01 -2.085651318631e+00) (4.211755340321e-02 1.454577064696e-01 -2.053574492888e-02))
0.37337             	((9.449337063238e+00 6.141941983427e-04 8.048487722411e+01) (-1.997822374495e-01 6.215021710961e-02 2.464636070381e-02)) ((1.793687894514e+01 9.677156468619e+01 -2.106619993672e+00) (4.360912268986e-02 1.522596049335e-01 -2.072124709911e-02))
0.38337             	((9.504439740326e+00 6.779388755408e-04 8.060676136686e+01) (-2.075400434082e-01 6.362127091893e-02 2.551967764107e-02)) ((1.794135717182e+01 9.720694432214e+01 -2.116304458497e+00) (4.511355926610e-02 1.594270907900e-01 -2.078413528623e-02))
0.39337             	((9.502360390435e+00 7.391183283494e-04 8.059386606560e+01) (-2.158740548453e-01 6.509540112572e-02 2.631191292401e-02)) ((1.792067476727e+01 9.747959899270e+01 -2.113817928747e+00) (4.662141414591e-02 1.669539505933e-01 -2.071064167602e-02))
0.40337             	((9.443166866911e+00 7.966759679844e-04 8.045656662353e+01) (-2.248097625520e-01 6.656242703821e-02 2.700709205833e-02)) ((1.787738276975e+01 9.760269119183e+01 -2.099230348059e+00) (4.812216972327e-02 1.748436578652e-01 -2.048526931304e-02))
0.41337             	((9.325234727241e+00 8.494627639223e-04 8.018481725204e+01) (-2.343654775485e-01 6.801821903536e-02 2.758848804769e-02)) ((1.780991142901e+01 9.756122947217e+01 -2.072268602373e+00) (4.960901999188e-02 1.830900980859e-01 -2.009901446827e-02))
0.42337             	((9.148268584079e+00 8.964655726468e-04 7.977333806623e+01) (-2.445567594054e-01 6.945552805407e-02 2.803425355440e-02)) ((1.771768292997e+01 9.734652275621e+01 -2.032927214384e+00) (5.107108189757e-02 1.916825330730e-01 -1.954341065269e-02))
0.43337             	((8.915282941959e+00 9.370303144909e-04 7.923908129508e+01) (-2.554110960489e-01 7.087433411337e-02 2.832112436294e-02)) ((1.760352970723e+01 9.698083043163e+01 -1.981740821935e+00) (5.250197144067e-02 2.006193288515e-01 -1.880914202779e-02))
0.44337             	((8.625965161686e+00 9.702784701030e-04 7.856326108190e+01) (-2.669191665197e-01 7.227480498843e-02 2.841770708603e-02)) ((1.746394299625e+01 9.643702861814e+01 -1.918669522726e+00) (5.389283461885e-02 2.098675553121e-01 -1.789690709803e-02))
0.45337             	((8.281113572955e+00 9.952788217065e-04 7.772852510303e+01) (-2.790657902384e-01 7.365488644772e-02 2.829836799732e-02)) ((1.729525951809e+01 9.569216757529e+01 -1.843843666670e+00) (5.523452893645e-02 2.193900015767e-01 -1.681146451775e-02))
0.46337             	((7.885755067254e+00 1.011769040793e-03 7.674880963945e+01) (-2.918240499450e-01 7.502031364971e-02 2.793827962518e-02)) ((1.709997187130e+01 9.476287048559e+01 -1.758230109449e+00) (5.652318394147e-02 2.291392684379e-01 -1.556936249173e-02))
0.47337             	((7.442417250095e+00 1.019390319504e-03 7.560730491409e+01) (-3.051434334677e-01 7.637335553843e-02 2.731531640580e-02)) ((1.687463937305e+01 9.362544708995e+01 -1.662320170998e+00) (5.775320140463e-02 2.390547255526e-01 -1.419059588473e-02))
0.48337             	((6.956951163418e+00 1.018081661290e-03 7.431204928579e+01) (-3.189697626954e-01 7.772235359395e-02 2.639682350589e-02)) ((1.662095287366e+01 9.228578665587e+01 -1.557285971935e+00) (5.892043992347e-02 2.490625518047e-01 -1.269838636546e-02))
0.49337             	((6.434103815093e+00 1.007873720331e-03 7.285301430236e+01) (-3.332413465012e-01 7.907156310643e-02 2.515417151098e-02)) ((1.633701895973e+01 9.072783090466e+01 -1.444079139619e+00) (6.001872399506e-02 2.590871910225e-01 -1.111541678967e-02))
0.50337             	((5.881167473327e+00 9.890884487041e-04 7.124133836282e+01) (-3.478932912031e-01 8.042635607143e-02 2.356920895579e-02)) ((1.602373592416e+01 8.896589783833e+01 -1.324038428079e+00) (6.104548897440e-02 2.690617070921e-01 -9.464868894651e-03))
0.51337             	((5.304238822530e+00 9.618228288640e-04 6.946940981899e+01) (-3.628738193878e-01 8.179980311950e-02 2.163361326614e-02)) ((1.567978141307e+01 8.698687548110e+01 -1.198411955413e+00) (6.200618189714e-02 2.789336543257e-01 -7.775385882039e-03))
0.52337             	((4.711073884865e+00 9.270363000759e-04 6.754484463485e+01) (-3.781503399451e-01 8.321683229158e-02 1.933665643371e-02)) ((1.530627866411e+01 8.479711352834e+01 -1.068736186774e+00) (6.291385644227e-02 2.886635746565e-01 -6.081008323710e-03))
0.53337             	((4.109966895325e+00 8.860012200435e-04 6.548204705254e+01) (-3.936845097769e-01 8.468374191435e-02 1.666224352162e-02)) ((1.490387600467e+01 8.241725902767e+01 -9.365537814358e-01) (6.376692400286e-02 2.982005446993e-01 -4.397714507812e-03))
0.54337             	((3.508837375408e+00 8.397485488765e-04 6.329237830031e+01) (-4.094266533012e-01 8.618091305695e-02 1.361371997164e-02)) ((1.447459618039e+01 7.985964132388e+01 -8.035101137811e-01) (6.455125095645e-02 3.075014078550e-01 -2.716030605446e-03))
0.55337             	((2.902144677396e+00 7.852944453983e-04 6.071080951396e+01) (-4.253174329701e-01 8.757219402158e-02 1.013331622282e-02)) ((1.395389000384e+01 7.679383773270e+01 -6.680278800838e-01) (6.514477448674e-02 3.163883184730e-01 -9.062856272968e-04))
0.56337             	((2.333800306525e+00 7.327338460086e-04 5.850174721975e+01) (-4.414609445663e-01 8.893472995573e-02 6.339056055367e-03)) ((1.351561941892e+01 7.418838359039e+01 -5.401055281933e-01) (6.564543559618e-02 3.251711135958e-01 9.988194311665e-04))
0.57337             	((1.777016002375e+00 6.737183519666e-04 5.597772733797e+01) (-4.578054157694e-01 9.032975934482e-02 2.240436232219e-03)) ((1.300957454502e+01 7.115098119725e+01 -4.138459879319e-01) (6.609191040657e-02 3.337578418928e-01 2.872969614341e-03))
0.58337             	((1.248647264567e+00 6.118873427872e-04 5.336931921633e+01) (-4.742418493108e-01 9.165816384896e-02 -2.175910120889e-03)) ((1.247899756363e+01 6.799174925962e+01 -2.927425287141e-01) (6.640512521038e-02 3.420270541876e-01 4.788665291188e-03))
0.59337             	((7.542002260493e-01 5.477988320651e-04 5.067212306902e+01) (-4.906504800434e-01 9.287074017879e-02 -6.878146207061e-03)) ((1.192354238371e+01 6.470501119056e+01 -1.781686486345e-01) (6.655540042191e-02 3.498969475810e-01 6.771946697441e-03))
0.60337             	((2.991164630291e-01 4.824816177238e-04 4.789669864902e+01) (-5.069063303053e-01 9.396182288367e-02 -1.183124141300e-02)) ((1.134669178035e+01 6.129503201876e+01 -7.147791257391e-02) (6.654445275023e-02 3.572961915268e-01 8.814693621326e-03))
0.61337             	((-1.118608553052e-01 4.171458769165e-04 4.504511468959e+01) (-5.228761453694e-01 9.492651558105e-02 -1.705543994433e-02)) ((1.074804629923e+01 5.776068536474e+01 2.615580020769e-02) (6.635871425204e-02 3.640994530088e-01 1.090097377628e-02))
0.62337             	((-4.747964284648e-01 3.532220399156e-04 4.214979369302e+01) (-5.384058166713e-01 9.575770231654e-02 -2.257275088809e-02)) ((1.013400219601e+01 5.414764317463e+01 1.137007204033e-01) (6.598187114488e-02 3.701582709114e-01 1.300555880118e-02))
0.63337             	((-7.872666741309e-01 2.919724573291e-04 3.924043827779e+01) (-5.533248047887e-01 9.645242052565e-02 -2.833599257681e-02)) ((9.510571706558e+00 5.049381356610e+01 1.904314447455e-01) (6.542019373109e-02 3.753692482473e-01 1.508887675518e-02))
0.64337             	((-1.047312493045e+00 2.344616594572e-04 3.631120248949e+01) (-5.674683246599e-01 9.700960650627e-02 -3.430320774815e-02)) ((8.877071566407e+00 4.679676150048e+01 2.557363918060e-01) (6.468111408182e-02 3.796305375321e-01 1.710326183083e-02))
0.65337             	((-1.257337593013e+00 1.822152243577e-04 3.346594020566e+01) (-5.806353229877e-01 9.736658367450e-02 -4.038696873527e-02)) ((8.254807000858e+00 4.319182755969e+01 3.099034090471e-01) (6.373926207760e-02 3.828813696409e-01 1.906531684124e-02))
0.66337             	((-1.417055652347e+00 1.354487920141e-04 3.066302176724e+01) (-5.927170538436e-01 9.752819265582e-02 -4.653291142214e-02)) ((7.635753704080e+00 3.963165166064e+01 3.527023516810e-01) (6.260971086973e-02 3.850983338311e-01 2.094072636340e-02))
0.67337             	((-1.528645576067e+00 9.455591523232e-05 2.792516552847e+01) (-6.036000870715e-01 9.746388222247e-02 -5.268504315615e-02)) ((7.020827000243e+00 3.615272775048e+01 3.842031900959e-01) (6.128317235503e-02 3.862553172639e-01 2.275388836978e-02))
0.68337             	((-1.594961823959e+00 5.959982314378e-05 2.526806615365e+01) (-6.133089440896e-01 9.717249090341e-02 -5.877548619657e-02)) ((6.417258950482e+00 3.277089006020e+01 4.049906248859e-01) (5.977658391925e-02 3.864396241711e-01 2.451970057419e-02))
0.69337             	((-1.617526979952e+00 3.036574495156e-05 2.267727063567e+01) (-6.218885981782e-01 9.666282192831e-02 -6.475676422288e-02)) ((5.821919596733e+00 2.946695617646e+01 4.152270962423e-01) (5.810681408622e-02 3.857389216781e-01 2.624961680822e-02))
0.70337             	((-1.594349822312e+00 6.510063358367e-06 2.009676296300e+01) (-6.292993806757e-01 9.598932234794e-02 -7.059684927405e-02)) ((5.226736484449e+00 2.615541807649e+01 4.146476786917e-01) (5.632287694092e-02 3.841551426828e-01 2.786764809537e-02))
0.71337             	((-1.527849168803e+00 -1.207465409932e-05 1.753859497279e+01) (-6.354458086804e-01 9.517495140316e-02 -7.625690059107e-02)) ((4.635407933916e+00 2.285299362001e+01 4.038225474663e-01) (5.445064499284e-02 3.816589332010e-01 2.932609610738e-02))
0.72337             	((-1.420110656425e+00 -2.549246409938e-05 1.500462281429e+01) (-6.402737133290e-01 9.420390080304e-02 -8.168121566610e-02)) ((4.050943720277e+00 1.955934905312e+01 3.834342944139e-01) (5.249258953638e-02 3.782639760597e-01 3.063484162419e-02))
0.73337             	((-1.274251076634e+00 -3.388816105592e-05 1.250410091350e+01) (-6.438325953209e-01 9.306983482865e-02 -8.679522683291e-02)) ((3.473956066452e+00 1.628504332316e+01 3.540633715814e-01) (5.046625989012e-02 3.740911536596e-01 3.181761441412e-02))
0.74337             	((-1.097294134532e+00 -3.748035266837e-05 1.007803542381e+01) (-6.462424262956e-01 9.175111987798e-02 -9.154586434092e-02)) ((2.911825911499e+00 1.309508108117e+01 3.170876234644e-01) (4.837184826726e-02 3.692882291646e-01 3.293607276648e-02))
0.75337             	((-8.850490447634e-01 -3.614616406790e-05 7.659644117556e+00) (-6.475859643799e-01 9.019577975824e-02 -9.585747939271e-02)) ((2.356738448427e+00 9.875683337961e+00 2.723607061358e-01) (4.619028291937e-02 3.640250651980e-01 3.407942324510e-02))
0.76337             	((-6.424386534593e-01 -3.006693846460e-05 5.270505909058e+00) (-6.479208645330e-01 8.835790636350e-02 -9.972594904363e-02)) ((1.813456204135e+00 6.657796658532e+00 2.210858998282e-01) (4.388777730917e-02 3.583512459550e-01 3.532454043860e-02))
0.77337             	((-3.703917774827e-01 -1.932786104952e-05 2.895838461157e+00) (-6.471878768112e-01 8.621788595006e-02 -1.032743414908e-01)) ((1.281533421383e+00 3.416069823324e+00 1.639371372194e-01) (4.143493662561e-02 3.520405707968e-01 3.669359723561e-02))
0.78337             	((-6.536132064079e-02 -3.734155791759e-06 4.893394213998e-01) (-6.452349963343e-01 8.378025824034e-02 -1.064254149073e-01)) ((7.535339648833e-01 7.826500215358e-02 1.006505202563e-01) (3.885365530324e-02 3.450955096328e-01 3.816208295246e-02))
0.79337             	((2.571226312246e-01 1.588766474998e-05 -1.851395704773e+00) (-6.418521720192e-01 8.108470779425e-02 -1.090568012898e-01)) ((2.458943609932e-01 -3.205655255962e+00 3.412240536323e-02) (3.619930019694e-02 3.375535052792e-01 3.965275199860e-02))
0.80337             	((5.881141528885e-01 3.898314661441e-05 -4.089052399639e+00) (-6.367886246989e-01 7.818807172274e-02 -1.111114069807e-01)) ((-2.355871559663e-01 -6.373083314472e+00 -3.394443747313e-02) (3.352987090281e-02 3.293245579540e-01 4.105245026391e-02))
0.81337             	((9.111268592667e-01 6.444831476738e-05 -6.139575725319e+00) (-6.297391023158e-01 7.516866419288e-02 -1.125148887466e-01)) ((-6.767313148678e-01 -9.285691227062e+00 -1.005259243060e-01) (3.092240281068e-02 3.203052184982e-01 4.221562084068e-02))
0.82337             	((1.217785709864e+00 9.163827073501e-05 -7.980112211635e+00) (-6.204689595711e-01 7.217259011284e-02 -1.132068927150e-01)) ((-1.074118858845e+00 -1.190753462102e+01 -1.640500469367e-01) (2.849686654408e-02 3.104401837178e-01 4.292132580896e-02))
0.83337             	((1.494072787121e+00 1.193817106584e-04 -9.551442007989e+00) (-6.089149892000e-01 6.931008835885e-02 -1.130941422281e-01)) ((-1.417820998055e+00 -1.414479433815e+01 -2.219577314269e-01) (2.634949760492e-02 2.998609476743e-01 4.302699594465e-02))
0.84337             	((1.740102199632e+00 1.474494750767e-04 -1.088493135053e+01) (-5.951914181128e-01 6.648303511814e-02 -1.121783823573e-01)) ((-1.713017292614e+00 -1.604240891468e+01 -2.740660926184e-01) (2.440176346300e-02 2.887054277529e-01 4.269302149958e-02))
0.85337             	((1.948464847346e+00 1.749003527717e-04 -1.195964017428e+01) (-5.795251332916e-01 6.349699153995e-02 -1.105137456956e-01)) ((-1.958017736044e+00 -1.757075355409e+01 -3.192572522684e-01) (2.250052099447e-02 2.771069168887e-01 4.221912701639e-02))
0.86337             	((2.123050545539e+00 2.016096041727e-04 -1.282087823551e+01) (-5.621505832506e-01 6.022839450404e-02 -1.081656870012e-01)) ((-2.161712341950e+00 -1.879836325569e+01 -3.582605195277e-01) (2.054655237119e-02 2.651926257039e-01 4.181456122176e-02))
0.87337             	((2.263062795252e+00 2.269810635977e-04 -1.347996150114e+01) (-5.433160042392e-01 5.665451257150e-02 -1.051858224920e-01)) ((-2.325035386870e+00 -1.974245874439e+01 -3.906674544665e-01) (1.852189577195e-02 2.531210627698e-01 4.155018596360e-02))
0.88337             	((2.360441875767e+00 2.496157118850e-04 -1.390195809703e+01) (-5.233187390256e-01 5.274192391144e-02 -1.016348312671e-01)) ((-2.441036335247e+00 -2.034625006885e+01 -4.148338737199e-01) (1.639649114660e-02 2.410672449076e-01 4.153656783349e-02))
0.89337             	((2.423891695949e+00 2.697384908374e-04 -1.414825652034e+01) (-5.024887708298e-01 4.847416725091e-02 -9.757942487310e-02)) ((-2.518074966195e+00 -2.069984979143e+01 -4.317934536882e-01) (1.414903787795e-02 2.292101533305e-01 4.188315107277e-02))
0.90337             	((2.447317184517e+00 2.859573363447e-04 -1.418960592512e+01) (-4.812197722114e-01 4.390157906128e-02 -9.309955031743e-02)) ((-2.549610860470e+00 -2.075740050169e+01 -4.401561422199e-01) (1.180366011299e-02 2.177496731670e-01 4.261768156122e-02))
0.91337             	((2.434527679687e+00 2.979423636647e-04 -1.405210248317e+01) (-4.600002218693e-01 3.916683323552e-02 -8.829940239910e-02)) ((-2.541110743167e+00 -2.055910176856e+01 -4.406835116799e-01) (9.444597962594e-03 2.069150917517e-01 4.365131320390e-02))
0.92337             	((2.393266633260e+00 3.060350356260e-04 -1.378157405214e+01) (-4.392704240996e-01 3.443972853170e-02 -8.334478648789e-02)) ((-2.506037578294e+00 -2.017477888796e+01 -4.356389396661e-01) (7.157157077769e-03 1.967897567637e-01 4.483906620924e-02))
0.93337             	((2.332558273443e+00 3.109589305252e-04 -1.342888139949e+01) (-4.191134272321e-01 2.981619317222e-02 -7.834278030017e-02)) ((-2.453716433650e+00 -1.968574432420e+01 -4.266593661490e-01) (4.985015220288e-03 1.872839817899e-01 4.605586057469e-02))
0.94337             	((2.256757641572e+00 3.129553495061e-04 -1.301665313230e+01) (-3.993940397268e-01 2.530767000121e-02 -7.332812563770e-02)) ((-2.386837758864e+00 -1.912591175024e+01 -4.142769921805e-01) (2.929220109434e-03 1.782609989666e-01 4.724900244814e-02))
0.95337             	((2.160860899050e+00 3.110493995794e-04 -1.251266912567e+01) (-3.800307732439e-01 2.089537739009e-02 -6.829668189354e-02)) ((-2.301182455732e+00 -1.843353856319e+01 -3.978582731851e-01) (9.765352735185e-04 1.696773381643e-01 4.843183933310e-02))
0.96337             	((2.050923634790e+00 3.059050933387e-04 -1.194764826270e+01) (-3.610542149917e-01 1.657219901923e-02 -6.325050751698e-02)) ((-2.202237717314e+00 -1.765378548445e+01 -3.784863487223e-01) (-8.807782807187e-04 1.615513036093e-01 4.963402759460e-02))
0.97337             	((1.920775365113e+00 2.965014971407e-04 -1.128041438141e+01) (-3.425008614803e-01 1.233544231717e-02 -5.820260988800e-02)) ((-2.080765100247e+00 -1.673199118008e+01 -3.547425892595e-01) (-2.647668258353e-03 1.538784311206e-01 5.087101299587e-02))
0.98337             	((1.774487118580e+00 2.833227295525e-04 -1.052816944827e+01) (-3.244172079541e-01 8.239139704612e-03 -5.318586504214e-02)) ((-1.939133122389e+00 -1.569980583204e+01 -3.272567824506e-01) (-4.300598126448e-03 1.466502284121e-01 5.209891593724e-02))
0.99337             	((1.614282583997e+00 2.666108707746e-04 -9.696683512168e+00) (-3.069440536651e-01 4.388129800292e-03 -4.824892263997e-02)) ((-1.778157344915e+00 -1.456520858538e+01 -2.964242024442e-01) (-5.788565705668e-03 1.398808778854e-01 5.324774719018e-02))
1.00337             	((1.438636068863e+00 2.459507256334e-04 -8.768244972492e+00) (-2.902160466115e-01 8.552125090040e-04 -4.350219129721e-02)) ((-1.593015188611e+00 -1.330884613762e+01 -2.617447888545e-01) (-7.100053022551e-03 1.335349210037e-01 5.427538547534e-02))
1.01337             	((1.249808598676e+00 2.214429891067e-04 -7.746522085609e+00) (-2.743527099838e-01 -2.308012734240e-03 -3.903489840008e-02)) ((-1.383809418221e+00 -1.193247662745e+01 -2.236021861131e-01) (-8.230219962638e-03 1.275931042452e-01 5.514694925950e-02))
1.02337             	((1.048559557070e+00 1.928734100738e-04 -6.624875959700e+00) (-2.594267228167e-01 -5.082672396094e-03 -3.488991506114e-02)) ((-1.149418559081e+00 -1.042712102073e+01 -1.822290616355e-01) (-9.179459893204e-03 1.220458880975e-01 5.583776073399e-02))
1.03337             	((8.453597820121e-01 1.617586558657e-04 -5.457730086061e+00) (-2.453811870083e-01 -7.434307558054e-03 -3.106861016708e-02)) ((-9.006231338361e-01 -8.867230958590e+00 -1.397623032704e-01) (-9.927397131589e-03 1.168408757656e-01 5.627250431650e-02))
1.04337             	((6.336143549962e-01 1.263999515923e-04 -4.190822459521e+00) (-2.320486910431e-01 -9.291534275999e-03 -2.759989523531e-02)) ((-6.268331483137e-01 -7.177023858661e+00 -9.498795529332e-02) (-1.044134998819e-02 1.118399096764e-01 5.631691704647e-02))
1.05337             	((4.176248650855e-01 8.706346752580e-05 -2.837565653923e+00) (-2.193369007286e-01 -1.061697216605e-02 -2.453217639887e-02)) ((-3.302623168689e-01 -5.379365867183e+00 -4.877212323844e-02) (-1.071586995689e-02 1.069320201989e-01 5.589897420187e-02))
1.06337             	((2.091128322358e-01 4.567191230144e-05 -1.463801877547e+00) (-2.072492404708e-01 -1.146622398788e-02 -2.181631763130e-02)) ((-2.465948620959e-02 -3.564869971548e+00 -3.633981833497e-03) (-1.077217899517e-02 1.021457629824e-01 5.506178937070e-02))
1.07337             	((2.248764310492e-03 5.159462081007e-07 -1.626796864633e-02) (-1.958350164401e-01 -1.186288768534e-02 -1.936286018939e-02)) ((2.976677202165e-01 -1.648638854244e+00 4.109510854758e-02) (-1.060012306816e-02 9.756610701836e-02 5.383733341740e-02))