# Forces            
# CofR              : (1.500000000000e+00 0.000000000000e+00 5.000000000000e-01)
# Time              forces(pressure viscous)	moments(pressure viscous)
0                   	((0.000000000000e+00 0.000000000000e+00 0.000000000000e+00) (-7.892507187951e+00 -2.246795890224e-01 -1.468381711820e-05)) ((0.000000000000e+00 0.000000000000e+00 0.000000000000e+00) (1.357764738932e-02 -6.616223740536e-01 -1.414108400508e+00))
0.00667             	((-9.943588604338e+03 -1.479323628259e+04 -1.035339308612e+00) (-9.227714678618e+00 3.359829549556e-01 2.885700676737e-02)) ((7.142572563054e+02 -6.933671652860e+02 2.623639296942e+04) (-2.710085496250e-02 -7.980589275784e-01 -2.928948402434e+00))
0.01334             	((5.030185297343e+03 7.264612304968e+03 1.293121589149e-01) (-6.992022873339e+00 3.942972258543e-01 2.332989095966e-01)) ((-1.038032215281e+02 3.273095309418e+02 -1.322905613118e+04) (-8.354718978608e-02 -5.303019962033e-01 -2.495385357674e+00))
0.02001             	((-7.327708453791e+02 -1.310363160291e+03 1.551594155910e-01) (-6.521909580092e+00 3.892472840188e-01 4.914084767085e-01)) ((2.304262600021e+02 -5.833142629430e+01 2.021000794747e+03) (-1.512919701851e-01 -4.236165118877e-01 -2.380319929885e+00))
0.02668             	((-4.325446686312e+02 -8.487629154768e+02 2.643960812259e-01) (-6.757774888392e+00 3.950885738879e-01 7.622396349416e-01)) ((1.808192221532e+02 -3.678183057731e+01 1.213755914694e+03) (-2.231595186623e-01 -3.754964758465e-01 -2.462237294848e+00))
0.03335             	((3.230888698236e+02 2.383090988821e+02 -3.627792148821e-01) (-6.566013301733e+00 3.911392634038e-01 1.017407067954e+00)) ((1.372759095211e+02 1.612993634245e+01 -7.695826221903e+02) (-2.904008729126e-01 -2.844971740558e-01 -2.413374514827e+00))
0.04002             	((-1.133824873264e+02 -3.977154771749e+02 2.108542761490e-01) (-6.481395256375e+00 3.825575060936e-01 1.274166207678e+00)) ((1.655532303854e+02 -1.392899981547e+01 3.817065431359e+02) (-3.576580396053e-01 -2.026457509368e-01 -2.384617419495e+00))
0.04669             	((-5.174844320845e+01 -3.167072775805e+02 1.421516552754e-01) (-6.428041082662e+00 3.761973014112e-01 1.528915832065e+00)) ((1.594488302693e+02 -8.822170440737e+00 2.222531070173e+02) (-4.246901008741e-01 -1.222766443122e-01 -2.368292930983e+00))
0.05336             	((-1.019857684727e+01 -2.628250380866e+02 4.168906319383e-02) (-6.352241358382e+00 3.699451195284e-01 1.777418181867e+00)) ((1.544381560268e+02 -5.619581707287e+00 1.154372019160e+02) (-4.901570812731e-01 -3.912509762949e-02 -2.346455587785e+00))
0.06003             	((-4.320567642266e+01 -3.176368826837e+02 2.106335015922e-01) (-6.295473357362e+00 3.639984052529e-01 2.023240113711e+00)) ((1.547337932054e+02 -7.272373478201e+00 2.054008385713e+02) (-5.550434549433e-01 4.276657182574e-02 -2.330239477024e+00))
0.0667              	((-3.651436466504e+01 -3.188520600875e+02 2.252736762078e-01) (-6.248212162786e+00 3.584511868123e-01 2.266775583555e+00)) ((1.529317932200e+02 -6.159438336159e+00 1.921344303289e+02) (-6.194830357826e-01 1.249466539021e-01 -2.317346463752e+00))
0.07337             	((-3.519372792581e+01 -3.251092931806e+02 2.669149324273e-01) (-6.207183304317e+00 3.530539713785e-01 2.506370876298e+00)) ((1.492076104717e+02 -5.540036073788e+00 1.920154974866e+02) (-6.829943984380e-01 2.066818795218e-01 -2.306421386351e+00))
0.08337             	((-3.882968829241e+01 -3.486019457702e+02 3.861259441898e-01) (-6.142465324074e+00 3.442978555772e-01 2.796517339275e+00)) ((1.454581681546e+02 -4.937511765290e+00 2.089391991672e+02) (-7.602104827497e-01 3.131992491335e-01 -2.287415160595e+00))
0.09337             	((-3.948494947949e+01 -3.660430439575e+02 4.975783335113e-01) (-6.108180511172e+00 3.352276003971e-01 3.139915384614e+00)) ((1.395916839330e+02 -3.739283627533e+00 2.175483135086e+02) (-8.515960744007e-01 4.337991126043e-01 -2.277881090407e+00))
0.10337             	((-4.116483473604e+01 -3.860886457926e+02 6.397100825329e-01) (-6.083785318745e+00 3.269658721803e-01 3.471153082363e+00)) ((1.334025250654e+02 -2.748134075982e+00 2.293250371627e+02) (-9.399376864209e-01 5.526907392743e-01 -2.271434191484e+00))
0.11337             	((-4.291543334252e+01 -4.080746702864e+02 8.046680474225e-01) (-6.066523316244e+00 3.198064868090e-01 3.789303513940e+00)) ((1.277217017544e+02 -1.753482959079e+00 2.420527059695e+02) (-1.024893741084e+00 6.707299400668e-01 -2.267435097886e+00))
0.12337             	((-4.400916754671e+01 -4.285307929957e+02 9.776874268832e-01) (-6.053329126331e+00 3.137943266254e-01 4.090162577345e+00)) ((1.198584312267e+02 -6.739314723454e-01 2.529212521867e+02) (-1.105238501313e+00 7.871656876270e-01 -2.264971314578e+00))
0.13337             	((-4.539245389895e+01 -4.506996516545e+02 1.176493780031e+00) (-6.042111777610e+00 3.088328453755e-01 4.371154899416e+00)) ((1.121128516058e+02 4.759217283723e-01 2.651660378474e+02) (-1.180177400105e+00 9.018483899059e-01 -2.263293993443e+00))
0.14337             	((-4.637704184564e+01 -4.716053166919e+02 1.383930059478e+00) (-6.030908679540e+00 3.048469348368e-01 4.629100779310e+00)) ((1.031873399231e+02 1.673514511313e+00 2.761989996088e+02) (-1.248768046256e+00 1.014194516691e+00 -2.261747597030e+00))
0.15337             	((-4.717395720910e+01 -4.923290814289e+02 1.602182990052e+00) (-6.018007524455e+00 3.017793199420e-01 4.861126369510e+00)) ((9.355911246024e+01 2.939174072089e+00 2.868872925094e+02) (-1.310236165616e+00 1.123540092463e+00 -2.259721707805e+00))
0.16337             	((-4.773605103164e+01 -5.121565622480e+02 1.826577330834e+00) (-6.001998035797e+00 2.995567232766e-01 5.065104812762e+00)) ((8.325791620769e+01 4.257564455878e+00 2.968540396823e+02) (-1.363998916736e+00 1.229475885933e+00 -2.256751216749e+00))
0.17337             	((-4.790087104543e+01 -5.304465779564e+02 2.046354037486e+00) (-5.981532722834e+00 2.981025575112e-01 5.238817469985e+00)) ((7.204222932018e+01 5.607004366644e+00 3.055104193034e+02) (-1.409452250661e+00 1.331363252137e+00 -2.252394648493e+00))
0.18337             	((-4.780775225076e+01 -5.476554466946e+02 2.261696357574e+00) (-5.955541524529e+00 2.973452365096e-01 5.380912869497e+00)) ((6.028182261930e+01 6.997888893314e+00 3.133236551063e+02) (-1.446224872036e+00 1.428809579778e+00 -2.246293427261e+00))
0.19337             	((-4.728242152019e+01 -5.627760988827e+02 2.458742989797e+00) (-5.923084173160e+00 2.971983582805e-01 5.490191087017e+00)) ((4.774551003809e+01 8.394349007240e+00 3.195295986771e+02) (-1.473979455642e+00 1.521307099882e+00 -2.238109412344e+00))
0.20337             	((-4.640591939647e+01 -5.761032285313e+02 2.634562181083e+00) (-5.883389681608e+00 2.975610502942e-01 5.566018353237e+00)) ((3.468558182162e+01 9.789932912317e+00 3.244100947799e+02) (-1.492537805895e+00 1.608464388680e+00 -2.227531662595e+00))
0.21337             	((-4.512289059932e+01 -5.871245103195e+02 2.779219742384e+00) (-5.835828406775e+00 2.983266296950e-01 5.608170408931e+00)) ((2.110735187643e+01 1.116030260904e+01 3.276350414415e+02) (-1.501835485222e+00 1.689942792952e+00 -2.214292820874e+00))
0.22337             	((-4.342779645046e+01 -5.956967391173e+02 2.884973737351e+00) (-5.779850847822e+00 2.993454903659e-01 5.616722460251e+00)) ((7.098809974714e+00 1.248527143487e+01 3.291291690864e+02) (-1.501891269226e+00 1.765388397150e+00 -2.198127889447e+00))
0.23337             	((-4.134405878043e+01 -6.017448385233e+02 2.946134366702e+00) (-5.715123881978e+00 3.005074784990e-01 5.592160224073e+00)) ((-7.182558180325e+00 1.374691234642e+01 3.288968599710e+02) (-1.492854110674e+00 1.834546952514e+00 -2.178873378429e+00))
0.24337             	((-3.885354291529e+01 -6.049977393389e+02 2.954531158142e+00) (-5.641417697468e+00 3.016819290563e-01 5.535114368607e+00)) ((-2.169378999471e+01 1.492274613145e+01 3.267778786304e+02) (-1.474907213066e+00 1.897133426489e+00 -2.156377922025e+00))
0.25337             	((-3.600377272613e+01 -6.055218445397e+02 2.907320768690e+00) (-5.558593716659e+00 3.027741142597e-01 5.446587594649e+00)) ((-3.627297364149e+01 1.600182396167e+01 3.228819609479e+02) (-1.448321603212e+00 1.952940686841e+00 -2.130525907633e+00))
0.26337             	((-3.279728407792e+01 -6.031326408266e+02 2.799252518484e+00) (-5.466661534573e+00 3.036548588551e-01 5.327745938397e+00)) ((-5.078774618194e+01 1.695399398352e+01 3.171217529918e+02) (-1.413434209663e+00 2.001732280005e+00 -2.101226581425e+00))
0.27337             	((-2.927407613269e+01 -5.979592969213e+02 2.629115527870e+00) (-5.365751205597e+00 3.042545967711e-01 5.179992822038e+00)) ((-6.515186615774e+01 1.777244097596e+01 3.096173873238e+02) (-1.370610076036e+00 2.043272694276e+00 -2.068455203690e+00))
0.28337             	((-2.550333236524e+01 -5.900818746310e+02 2.399907861100e+00) (-5.256163304817e+00 3.045720425350e-01 5.005106710588e+00)) ((-7.923438632700e+01 1.844743107934e+01 3.005283531763e+02) (-1.320299565432e+00 2.077407662100e+00 -2.032296344825e+00))
0.29337             	((-2.151192180014e+01 -5.795534370490e+02 2.112483738653e+00) (-5.138400956166e+00 3.045606663768e-01 4.805283253987e+00)) ((-9.292785077463e+01 1.896688355427e+01 2.899136327709e+02) (-1.263090056163e+00 2.104040086952e+00 -1.992879367345e+00))
0.30337             	((-1.737400518382e+01 -5.666109685131e+02 1.773787679201e+00) (-5.013723599691e+00 3.041090963572e-01 4.583660127934e+00)) ((-1.061107209572e+02 1.933343511322e+01 2.780007599284e+02) (-1.199808780040e+00 2.123027404062e+00 -1.950596746866e+00))
0.31337             	((-1.315711963572e+01 -5.514193485105e+02 1.392014578864e+00) (-4.882418532920e+00 3.033096580802e-01 4.342045079209e+00)) ((-1.187118087094e+02 1.955403812843e+01 2.649834527208e+02) (-1.131058517427e+00 2.134673997007e+00 -1.905522679083e+00))
0.32337             	((-8.934884995079e+00 -5.342339941039e+02 9.777286661263e-01) (-4.745480178773e+00 3.020810254908e-01 4.083221916600e+00)) ((-1.305991459626e+02 1.962741738982e+01 2.510963174550e+02) (-1.057606846039e+00 2.138921013271e+00 -1.857959593128e+00))
0.33337             	((-4.783939455363e+00 -5.153696533497e+02 5.433596323666e-01) (-4.604122439081e+00 3.003591345784e-01 3.810094558126e+00)) ((-1.417124027043e+02 1.957198186553e+01 2.366106272947e+02) (-9.802870744546e-01 2.135860023957e+00 -1.808287345117e+00))
0.34337             	((-7.751294318712e-01 -4.950874460875e+02 1.019723154418e-01) (-4.459654183965e+00 2.980529390518e-01 3.525660781191e+00)) ((-1.519998761110e+02 1.940518389789e+01 2.217617486214e+02) (-8.999432718158e-01 2.125563844270e+00 -1.756932284054e+00))
0.35337             	((3.012491632935e+00 -4.737090258100e+02 -3.315434768372e-01) (-4.313422664029e+00 2.950391846765e-01 3.232996362318e+00)) ((-1.614019677586e+02 1.914147730751e+01 2.068283385710e+02) (-8.173747287287e-01 2.108237628721e+00 -1.704414980005e+00))
0.36337             	((6.512099716460e+00 -4.516507847616e+02 -7.431576487672e-01) (-4.166967129079e+00 2.915187554506e-01 2.935063424191e+00)) ((-1.699118735471e+02 1.880344592659e+01 1.921056796681e+02) (-7.334007990033e-01 2.084233522262e+00 -1.651385464076e+00))
0.37337             	((9.651161091067e+00 -4.292791543662e+02 -1.118133231733e+00) (-4.022134490856e+00 2.876810046681e-01 2.634790572631e+00)) ((-1.774968860084e+02 1.841625808890e+01 1.778804072820e+02) (-6.488321655957e-01 2.054122169283e+00 -1.598526623450e+00))
0.38337             	((1.235073622099e+01 -4.068454906973e+02 -1.441361470159e+00) (-3.880790218516e+00 2.835836856440e-01 2.335017403656e+00)) ((-1.841526035713e+02 1.801071908465e+01 1.644067626454e+02) (-5.644167372726e-01 2.018493064135e+00 -1.546469233895e+00))
0.39337             	((1.454897144639e+01 -3.847955294979e+02 -1.700606619886e+00) (-3.744755050328e+00 2.791683892766e-01 2.038509903699e+00)) ((-1.898849632577e+02 1.761287661438e+01 1.519846982374e+02) (-4.809526231498e-01 1.977948670356e+00 -1.495829307142e+00))
0.40337             	((1.619268789803e+01 -3.634180421398e+02 -1.886007093304e+00) (-3.615446070546e+00 2.743373714431e-01 1.747791485857e+00)) ((-1.947250993626e+02 1.725272761882e+01 1.408390814781e+02) (-3.992247445360e-01 1.932842687058e+00 -1.447140795724e+00))
0.41337             	((1.723732432428e+01 -3.429923527840e+02 -1.990468543532e+00) (-3.494616072387e+00 2.691223523469e-01 1.464945368601e+00)) ((-1.987101161280e+02 1.695305137326e+01 1.311700144385e+02) (-3.198089865104e-01 1.883694574552e+00 -1.401091810198e+00))
0.42337             	((1.765517515432e+01 -3.238680487941e+02 -2.010925188606e+00) (-3.384498784214e+00 2.636124805529e-01 1.191629939298e+00)) ((-2.019104380020e+02 1.673443155187e+01 1.231796516100e+02) (-2.431324649223e-01 1.831320598580e+00 -1.358533838072e+00))
0.43337             	((1.740806224556e+01 -3.062550919427e+02 -1.945377083081e+00) (-3.287138983884e+00 2.576263358306e-01 9.287606192758e-01)) ((-2.043805456666e+02 1.661331956352e+01 1.170345262098e+02) (-1.695328980685e-01 1.776422133122e+00 -1.320147755068e+00))
0.44337             	((1.650071060692e+01 -2.904263474371e+02 -1.799058564127e+00) (-3.204321154996e+00 2.509788277087e-01 6.765495833603e-01)) ((-2.062267832159e+02 1.659617952040e+01 1.128510260080e+02) (-9.914999283296e-02 1.719635710607e+00 -1.286505592366e+00))
0.45337             	((1.491808519542e+01 -2.765653350438e+02 -1.577298782898e+00) (-3.137576961609e+00 2.436233175291e-01 4.341188812065e-01)) ((-2.074878936998e+02 1.669252747383e+01 1.107428236002e+02) (-3.181088659845e-02 1.661480744377e+00 -1.258168087145e+00))
0.46337             	((1.264473880650e+01 -2.646703086890e+02 -1.287800944759e+00) (-3.087885353907e+00 2.356393935479e-01 1.994473692985e-01)) ((-2.081620361999e+02 1.692085824144e+01 1.107441484356e+02) (3.303102488083e-02 1.602252420570e+00 -1.235500153825e+00))
0.47337             	((9.705385113689e+00 -2.547671273764e+02 -9.446164330274e-01) (-3.055406602489e+00 2.273224859480e-01 -3.055400359624e-02)) ((-2.082283567305e+02 1.726779945744e+01 1.128264183760e+02) (9.630696895491e-02 1.542071775249e+00 -1.218722598544e+00))
0.48337             	((6.170468483103e+00 -2.470166788847e+02 -5.676455525420e-01) (-3.039357095912e+00 2.189788958488e-01 -2.597396903521e-01)) ((-2.078684545581e+02 1.770660299771e+01 1.169444098335e+02) (1.590944729126e-01 1.480832627779e+00 -1.207701002894e+00))
0.49337             	((2.147209424382e+00 -2.417752429796e+02 -1.803298390288e-01) (-3.038197778551e+00 2.109970474985e-01 -4.921590663698e-01)) ((-2.072866821751e+02 1.819232524006e+01 1.230732063629e+02) (2.223975987174e-01 1.418193595361e+00 -1.202077403159e+00))
0.50337             	((-2.325050530383e+00 -2.390739775229e+02 2.005254070118e-01) (-3.050230031643e+00 2.037005464452e-01 -7.315049520970e-01)) ((-2.066212733421e+02 1.870274461083e+01 1.311878542107e+02) (2.871390423798e-01 1.353557688278e+00 -1.201432648335e+00))
0.51337             	((-7.156698808046e+00 -2.387809549353e+02 5.543238606502e-01) (-3.073679148542e+00 1.973445498547e-01 -9.804733460860e-01)) ((-2.059455910349e+02 1.919958353298e+01 1.410516368302e+02) (3.540621966732e-01 1.286060367243e+00 -1.205272159140e+00))
0.52337             	((-1.229778881944e+01 -2.407119058779e+02 8.649281148751e-01) (-3.106928148197e+00 1.921588672247e-01 -1.240567603070e+00)) ((-2.053453414132e+02 1.966067135175e+01 1.525069300856e+02) (4.237303496221e-01 1.214672345361e+00 -1.213121397603e+00))
0.53337             	((-1.770657372477e+01 -2.448531675506e+02 1.117851624324e+00) (-3.148538196425e+00 1.882614501011e-01 -1.511909416416e+00)) ((-2.048210496888e+02 2.008107798371e+01 1.654817426101e+02) (4.963468669642e-01 1.138349193188e+00 -1.224543262350e+00))
0.54337             	((-2.326025805465e+01 -2.510251695710e+02 1.295342614901e+00) (-3.197234927364e+00 1.857029640427e-01 -1.793232748563e+00)) ((-2.043158061970e+02 2.042614738331e+01 1.796594324235e+02) (5.717171969370e-01 1.056063873836e+00 -1.239186822495e+00))
0.55337             	((-2.823365149901e+01 -2.556466286857e+02 1.354852282820e+00) (-3.252164346036e+00 1.844451842046e-01 -2.082359192026e+00)) ((-2.038493053736e+02 2.050354093819e+01 1.918561703062e+02) (6.493672125470e-01 9.667399046305e-01 -1.256853223247e+00))
0.56337             	((-3.445792498638e+01 -2.678726378178e+02 1.379177478604e+00) (-3.313179595347e+00 1.842508396630e-01 -2.376744776803e+00)) ((-2.034524196222e+02 2.084911434204e+01 2.103713379876e+02) (7.285964556736e-01 8.698056237311e-01 -1.277429710896e+00))
0.57337             	((-3.987025377311e+01 -2.805480559686e+02 1.269763385521e+00) (-3.379954139451e+00 1.849025653177e-01 -2.673981906086e+00)) ((-2.026272972448e+02 2.085590098749e+01 2.273660540177e+02) (8.088046589740e-01 7.645906731625e-01 -1.300884642056e+00))
0.58337             	((-4.505302167046e+01 -2.940542129471e+02 1.057752823652e+00) (-3.452518034581e+00 1.860005389956e-01 -2.972673625545e+00)) ((-2.015211740973e+02 2.072608374582e+01 2.443559098866e+02) (8.897009020624e-01 6.507355923779e-01 -1.327229748827e+00))
0.59337             	((-4.998508773174e+01 -3.084621368108e+02 7.472970697984e-01) (-3.530977793975e+00 1.872530998750e-01 -3.272092000846e+00)) ((-2.001507555911e+02 2.044532669066e+01 2.613535126420e+02) (9.711439104275e-01 5.279555141521e-01 -1.356509095294e+00))
0.60337             	((-5.458258775018e+01 -3.233250865993e+02 3.438199652743e-01) (-3.615368975902e+00 1.885467518640e-01 -3.571090931620e+00)) ((-1.984039658347e+02 1.998104511703e+01 2.779830930018e+02) (1.052831017639e+00 3.959443329522e-01 -1.388593992890e+00))
0.61337             	((-5.878678718639e+01 -3.387682411148e+02 -1.434432821506e-01) (-3.705523664753e+00 1.900436525512e-01 -3.867187384158e+00)) ((-1.962902303614e+02 1.932225186369e+01 2.941888795682e+02) (1.134002449585e+00 2.544133385911e-01 -1.423289222339e+00))
0.62337             	((-6.261203439273e+01 -3.543855463404e+02 -7.031852486484e-01) (-3.800906314367e+00 1.920990174761e-01 -4.156674652907e+00)) ((-1.938045170180e+02 1.847283702615e+01 3.097935224486e+02) (1.213487004407e+00 1.033586657483e-01 -1.460340729382e+00))
0.63337             	((-6.603203865447e+01 -3.697691472750e+02 -1.323111298339e+00) (-3.900684145375e+00 1.951206689457e-01 -4.435309553403e+00)) ((-1.908721372467e+02 1.742873097944e+01 3.245586810710e+02) (1.289996215674e+00 -5.681349105957e-02 -1.499564297724e+00))
0.64337             	((-6.905095560603e+01 -3.850516970034e+02 -1.990387428331e+00) (-4.003860939703e+00 1.993169178006e-01 -4.699478318515e+00)) ((-1.874800519445e+02 1.620921921917e+01 3.385770072285e+02) (1.362378420181e+00 -2.253063728040e-01 -1.540646019284e+00))
0.65337             	((-7.164057398890e+01 -3.998929193146e+02 -2.690784236423e+00) (-4.109279058018e+00 2.047438410044e-01 -4.946525949282e+00)) ((-1.835798741509e+02 1.484376545735e+01 3.516204647931e+02) (1.429811920401e+00 -4.011017443897e-01 -1.583240213573e+00))
0.66337             	((-7.366109377120e+01 -4.139720619558e+02 -3.403748438487e+00) (-4.215658133149e+00 2.113487030125e-01 -5.174683704462e+00)) ((-1.790296373724e+02 1.332533659599e+01 3.632220403813e+02) (1.491736117278e+00 -5.829728314833e-01 -1.626978437353e+00))
0.67337             	((-7.528511342261e+01 -4.276247374008e+02 -4.121139898575e+00) (-4.321813361764e+00 2.190930440835e-01 -5.382814654378e+00)) ((-1.739342201279e+02 1.172382267878e+01 3.739481468842e+02) (1.547763284838e+00 -7.695557085633e-01 -1.671511640425e+00))
0.68337             	((-7.636649063393e+01 -4.401890638238e+02 -4.820713389603e+00) (-4.426529436381e+00 2.278864633149e-01 -5.569918886565e+00)) ((-1.681278167491e+02 1.003478088363e+01 3.831274359856e+02) (1.597602152577e+00 -9.592654154975e-01 -1.716462240129e+00))
0.69337             	((-7.695336938006e+01 -4.517447509647e+02 -5.489627254811e+00) (-4.528643716196e+00 2.376420746792e-01 -5.735112237540e+00)) ((-1.616061105785e+02 8.291577013134e+00 3.909082872699e+02) (1.640992834367e+00 -1.150288873001e+00 -1.761407049842e+00))
0.70337             	((-7.700737256520e+01 -4.620626549001e+02 -6.110297273867e+00) (-4.626968835745e+00 2.482517381983e-01 -5.877360410973e+00)) ((-1.542781486443e+02 6.497167336649e+00 3.970682511006e+02) (1.677668006088e+00 -1.340602059577e+00 -1.805860787875e+00))
0.71337             	((-7.656634068002e+01 -4.708961151064e+02 -6.671297138008e+00) (-4.720403341705e+00 2.595658364479e-01 -5.995776643936e+00)) ((-1.461739946881e+02 4.677468383475e+00 4.015435081983e+02) (1.707405538301e+00 -1.528199583917e+00 -1.849347599134e+00))
0.72337             	((-7.568147932267e+01 -4.783736729901e+02 -7.164499307819e+00) (-4.807912770166e+00 2.713976501224e-01 -6.089423681357e+00)) ((-1.373407970756e+02 2.863324260766e+00 4.045155612533e+02) (1.729996535007e+00 -1.711048566218e+00 -1.891295337646e+00))
0.73337             	((-7.435877162521e+01 -4.843855092664e+02 -7.579585521748e+00) (-4.888546021185e+00 2.835971510849e-01 -6.157457831574e+00)) ((-1.277744750449e+02 1.088281053564e+00 4.059190664251e+02) (1.745246346477e+00 -1.887080868076e+00 -1.931237976525e+00))
0.74337             	((-7.263072227455e+01 -4.888938656578e+02 -7.910246542591e+00) (-4.961465494344e+00 2.959958148661e-01 -6.199188380431e+00)) ((-1.175681037290e+02 -6.306159544417e-01 4.057882678966e+02) (1.753019748218e+00 -2.054270515028e+00 -1.968701505779e+00))
0.75337             	((-7.049796499797e+01 -4.917287775476e+02 -8.148345813094e+00) (-5.026040231214e+00 3.084781869901e-01 -6.214205138651e+00)) ((-1.067158615840e+02 -2.293377141206e+00 4.040244843712e+02) (1.753277506835e+00 -2.210777244581e+00 -2.003333776256e+00))
0.76337             	((-6.808463666287e+01 -4.931485036182e+02 -8.301858253085e+00) (-5.081675164991e+00 3.209010107338e-01 -6.202227894988e+00)) ((-9.535322931368e+01 -3.863532721350e+00 4.010164523734e+02) (1.746017331136e+00 -2.354799926672e+00 -2.034795443628e+00))
0.77337             	((-6.529125331739e+01 -4.927746839643e+02 -8.354152136035e+00) (-5.127855699921e+00 3.330206515293e-01 -6.163371502418e+00)) ((-8.350136433519e+01 -5.342402571066e+00 3.963167242775e+02) (1.731325104648e+00 -2.484896217291e+00 -2.062661484438e+00))
0.78337             	((-6.226371164085e+01 -4.909271365760e+02 -8.319970692175e+00) (-5.164279538636e+00 3.445794085622e-01 -6.098089766002e+00)) ((-7.136207950846e+01 -6.698043830914e+00 3.903972361783e+02) (1.709368570584e+00 -2.599918936455e+00 -2.086525207659e+00))
0.79337             	((-5.890558160286e+01 -4.874097791465e+02 -8.184466493452e+00) (-5.190805223150e+00 3.554647863552e-01 -6.007155279977e+00)) ((-5.892053150427e+01 -7.929371537177e+00 3.829040010353e+02) (1.680389947520e+00 -2.698940070302e+00 -2.106269653134e+00))
0.80337             	((-5.540272733557e+01 -4.826200738018e+02 -7.972272624785e+00) (-5.207291759984e+00 3.655545954061e-01 -5.891549531391e+00)) ((-4.644647115189e+01 -9.007003470167e+00 3.744540002973e+02) (1.644691420907e+00 -2.781278138664e+00 -2.121769718248e+00))
0.81337             	((-5.175408103463e+01 -4.766150023929e+02 -7.684554170105e+00) (-5.213761940131e+00 3.746955229099e-01 -5.752534929758e+00)) ((-3.395064549813e+01 -9.934197243481e+00 3.650644887874e+02) (1.602653897836e+00 -2.846590574395e+00 -2.132898763323e+00))
0.82337             	((-4.807798001893e+01 -4.696013177486e+02 -7.341194233844e+00) (-5.210302195425e+00 3.827304770661e-01 -5.591334470077e+00)) ((-2.159266098854e+01 -1.069931739372e+01 3.550894426925e+02) (1.554662556015e+00 -2.894527278099e+00 -2.139504417409e+00))
0.83337             	((-4.441056175076e+01 -4.615655614277e+02 -6.951482938338e+00) (-5.197134536111e+00 3.894265246047e-01 -5.409377993848e+00)) ((-9.469541884807e+00 -1.130607955779e+01 3.445789444121e+02) (1.501169191426e+00 -2.924976405629e+00 -2.141400530598e+00))
0.84337             	((-4.075246091929e+01 -4.526824659592e+02 -6.519721692014e+00) (-5.174533213780e+00 3.945657186195e-01 -5.208196242421e+00)) ((2.388240718484e+00 -1.175003264627e+01 3.336144328591e+02) (1.442627465377e+00 -2.938038759355e+00 -2.138430415692e+00))
0.85337             	((-3.722247993820e+01 -4.431974252870e+02 -6.069530916972e+00) (-5.143035676692e+00 3.980054125778e-01 -4.989658230204e+00)) ((1.380094750978e+01 -1.203691139035e+01 3.225683125647e+02) (1.379585299921e+00 -2.934213965680e+00 -2.130589543789e+00))
0.86337             	((-3.383990268303e+01 -4.330903858004e+02 -5.609322398208e+00) (-5.103447666363e+00 3.997098988006e-01 -4.755837889459e+00)) ((2.468372815743e+01 -1.216967533086e+01 3.114554105886e+02) (1.312639762856e+00 -2.914294214054e+00 -2.118108920087e+00))
0.87337             	((-3.061776524857e+01 -4.225608480000e+02 -5.146355040915e+00) (-5.056758306421e+00 3.997763413093e-01 -4.508842044724e+00)) ((3.500543931023e+01 -1.217395113556e+01 3.003956798757e+02) (1.242397577512e+00 -2.879197200146e+00 -2.101474506935e+00))
0.88337             	((-2.755994608092e+01 -4.118106892710e+02 -4.686116123567e+00) (-5.004011872335e+00 3.983078010399e-01 -4.250863379027e+00)) ((4.471934230491e+01 -1.204490711820e+01 2.895002861736e+02) (1.169483386889e+00 -2.830008640287e+00 -2.081208858007e+00))
0.89337             	((-2.464608434955e+01 -4.010056905939e+02 -4.229572573616e+00) (-4.946372287696e+00 3.953467646813e-01 -3.984071462527e+00)) ((5.388126701028e+01 -1.181197986194e+01 2.788083070772e+02) (1.094500109531e+00 -2.767870758998e+00 -2.057793454710e+00))
0.90337             	((-2.194517923977e+01 -3.903333289885e+02 -3.792671073670e+00) (-4.885030830085e+00 3.909604394283e-01 -3.710536717743e+00)) ((6.238111195441e+01 -1.148579328150e+01 2.685542639793e+02) (1.018039984609e+00 -2.693958764180e+00 -2.031786383411e+00))
0.91337             	((-1.950637454779e+01 -3.800357526498e+02 -3.387751356867e+00) (-4.821236680875e+00 3.851918165568e-01 -3.432237454608e+00)) ((7.018751144594e+01 -1.108701272162e+01 2.589689432919e+02) (9.406632037650e-01 -2.609535633204e+00 -2.003730069396e+00))
0.92337             	((-1.730390142287e+01 -3.701677425448e+02 -3.013698369654e+00) (-4.756394730622e+00 3.781340032317e-01 -3.151026833221e+00)) ((7.728722550098e+01 -1.063761982691e+01 2.500178084977e+02) (8.628800635617e-01 -2.515913386192e+00 -1.974203278304e+00))
0.93337             	((-1.537537455722e+01 -3.608444177336e+02 -2.679845139016e+00) (-4.692037824811e+00 3.697612781374e-01 -2.868544303640e+00)) ((8.371728533256e+01 -1.015121146273e+01 2.418497885866e+02) (7.852095145950e-01 -2.414376150251e+00 -1.943661762876e+00))
0.94337             	((-1.368159231497e+01 -3.521826576315e+02 -2.381600301858e+00) (-4.629836281711e+00 3.600357487906e-01 -2.586244766205e+00)) ((8.944927312253e+01 -9.643555362833e+00 2.344249115254e+02) (7.080494974248e-01 -2.306269573737e+00 -1.912580254665e+00))
0.95337             	((-1.223434960068e+01 -3.442595237821e+02 -2.122685249361e+00) (-4.571397602829e+00 3.488027771618e-01 -2.305275392898e+00)) ((9.451904713000e+01 -9.128174319098e+00 2.278211841483e+02) (6.315211224671e-01 -2.193033399860e+00 -1.881631216462e+00))
0.96337             	((-1.106360098189e+01 -3.373242606685e+02 -1.909363014560e+00) (-4.518138865572e+00 3.362158907831e-01 -2.026393369326e+00)) ((9.886022638797e+01 -8.604406036972e+00 2.222231207894e+02) (5.557820538606e-01 -2.076056408734e+00 -1.851672212767e+00))
0.97337             	((-1.016075540652e+01 -3.315960120390e+02 -1.740600846863e+00) (-4.471243493704e+00 3.226246728131e-01 -1.749869437397e+00)) ((1.024300798327e+02 -8.091934177615e+00 2.177265170973e+02) (4.809299706630e-01 -1.956598740066e+00 -1.823324220763e+00))
0.98337             	((-9.585169771211e+00 -3.272183782724e+02 -1.626271048060e+00) (-4.431658941282e+00 3.085600312922e-01 -1.475586607693e+00)) ((1.052829720949e+02 -7.609709981688e+00 2.145403621764e+02) (4.070183548845e-01 -1.835705815479e+00 -1.797111000297e+00))
0.99337             	((-9.306663043910e+00 -3.242674203802e+02 -1.560309383055e+00) (-4.400167056350e+00 2.944296666394e-01 -1.203406453215e+00)) ((1.073992445181e+02 -7.151166372208e+00 2.126288306332e+02) (3.340450102332e-01 -1.714102737920e+00 -1.773441074967e+00))
1.00337             	((-9.328137177011e+00 -3.228822002099e+02 -1.541689827247e+00) (-4.377514150143e+00 2.803937021852e-01 -9.332732126196e-01)) ((1.087403761856e+02 -6.707931445578e+00 2.120710915770e+02) (2.619433077196e-01 -1.592255250315e+00 -1.752681721890e+00))
1.01337             	((-9.693094672650e+00 -3.233140620462e+02 -1.575279611224e+00) (-4.364146031036e+00 2.666739662903e-01 -6.652359506993e-01)) ((1.093781193568e+02 -6.303462749610e+00 2.131133323272e+02) (1.907109498858e-01 -1.470601237170e+00 -1.735141582344e+00))
1.02337             	((-1.041000648014e+01 -3.254640363438e+02 -1.659308972441e+00) (-4.360246892722e+00 2.534768423339e-01 -3.994753232444e-01)) ((1.092980121825e+02 -5.931160729121e+00 2.157186018032e+02) (1.203400398720e-01 -1.349652757295e+00 -1.721015948448e+00))
1.03337             	((-1.146628542856e+01 -3.295778607301e+02 -1.787956360113e+00) (-4.365772533292e+00 2.410313490642e-01 -1.361292784839e-01)) ((1.085238149189e+02 -5.606233859404e+00 2.200192526708e+02) (5.077730394493e-02 -1.229838088418e+00 -1.710570761417e+00))
1.04337             	((-1.288789958483e+01 -3.360001885777e+02 -1.960766504425e+00) (-4.380467570300e+00 2.295521286868e-01 1.247474302815e-01)) ((1.070263248044e+02 -5.324009215451e+00 2.262757866545e+02) (-1.804275576486e-02 -1.111431697239e+00 -1.704021338002e+00))
1.05337             	((-1.459705785206e+01 -3.446955955207e+02 -2.160940367463e+00) (-4.403890369054e+00 2.190629742167e-01 3.829512376297e-01)) ((1.047436140642e+02 -5.094173516373e+00 2.342980079156e+02) (-8.616019131984e-02 -9.945393766283e-01 -1.701306841081e+00))
1.06337             	((-1.648338222113e+01 -3.554354400596e+02 -2.367709891830e+00) (-4.435622227001e+00 2.096020900946e-01 6.380451752051e-01)) ((1.016906102536e+02 -4.908943546628e+00 2.437238206191e+02) (-1.534964790447e-01 -8.791936002043e-01 -1.702314465439e+00))