# Motion State      
# Angle Units       : [deg]
# Angular Velocity Units: [rad/s]
# Time              	Centre of rotation	Orientation	Linear velocity	Angular velocity
0                   	(0.000000000000e+00 0.000000000000e+00 0.000000000000e+00)	(0.000000000000e+00 0.000000000000e+00 0.000000000000e+00)	(0.000000000000e+00 0.000000000000e+00 0.000000000000e+00)	(0.000000000000e+00 0.000000000000e+00 0.000000000000e+00)
0.00667             	(-4.763253946502e-04 1.796229860106e-08 -3.829092979421e-05)	(-8.282070093667e-06 -5.522444701348e-04 -4.000606130088e-06)	(-1.428262052924e-01 5.385996582026e-06 -1.148153816918e-02)	(4.334314602960e-05 2.890100233818e-03 2.093665638351e-05)
0.01334             	(-1.795914582831e-03 1.020233889043e-07 -1.541372819050e-04)	(-2.109271439416e-05 -5.202812758447e-03 -8.861165289688e-06)	(-2.528527117035e-01 1.981972764683e-05 -2.325499919536e-02)	(2.369631009943e-05 2.144804931674e-02 4.499160793105e-06)
0.02001             	(-3.381312518115e-03 1.871272026444e-07 -3.228657774892e-04)	(-2.754144378517e-05 -1.853961957230e-02 -9.696829308498e-06)	(-2.225289780367e-01 5.698657282756e-06 -2.733825285389e-02)	(1.004043906569e-05 4.834840964075e-02 -1.312999800746e-07)
0.02668             	(-4.916738001195e-03 2.265717615882e-07 -5.414765665248e-04)	(-3.617229325382e-05 -4.102375648171e-02 -1.251025740858e-05)	(-2.378684681644e-01 6.128796673399e-06 -3.821220862605e-02)	(3.510812253495e-05 6.931942201260e-02 1.483311152374e-05)
0.03335             	(-6.555743350291e-03 2.721443870111e-07 -8.298103701174e-04)	(-4.606995085729e-05 -7.176461905692e-02 -1.654274565411e-05)	(-2.535874086260e-01 7.536158475906e-06 -4.824470399541e-02)	(1.664686262995e-05 9.155891888298e-02 6.221332170217e-06)
0.04002             	(-8.276198964917e-03 2.979485200733e-07 -1.180794811781e-03)	(-5.402708415278e-05 -1.111571655324e-01 -1.984748870152e-05)	(-2.622913363892e-01 2.012127571107e-07 -5.699800714817e-02)	(2.493188407076e-05 1.145968942461e-01 1.100873218712e-05)
0.04669             	(-1.006643952365e-02 3.324695925654e-07 -1.595408603278e-03)	(-6.295198390429e-05 -1.590796072612e-01 -2.328593764155e-05)	(-2.745124293490e-01 1.014993341745e-05 -6.732396931277e-02)	(2.167915510569e-05 1.361990259404e-01 6.877477680257e-06)
0.05336             	(-1.193683459656e-02 3.742920171258e-07 -2.075263701545e-03)	(-7.108774013653e-05 -2.153180196092e-01 -2.639136170400e-05)	(-2.863256734702e-01 2.390523722108e-06 -7.656061787355e-02)	(2.077159820015e-05 1.581174543077e-01 9.236790571698e-06)
0.06003             	(-1.388315578497e-02 4.129980829559e-07 -2.618377315206e-03)	(-7.898074789934e-05 -2.798170941093e-01 -2.930040415356e-05)	(-2.972788807765e-01 9.215493018553e-06 -8.629203989594e-02)	(2.036905495112e-05 1.794301362720e-01 5.810289956386e-06)
0.0667              	(-1.590256142149e-02 4.717268721776e-07 -3.225389266527e-03)	(-8.636514686108e-05 -3.524021247850e-01 -3.151001421948e-05)	(-3.082400507154e-01 8.394338832007e-06 -9.572053921084e-02)	(1.807387670296e-05 2.004342634345e-01 5.541549508976e-06)
0.07337             	(-1.799362202845e-02 5.266163920808e-07 -3.894845162610e-03)	(-9.325789126455e-05 -4.329386161466e-01 -3.360328968854e-05)	(-3.187646290311e-01 8.064287825643e-06 -1.050158614138e-01)	(1.775777869991e-05 2.210430805929e-01 5.167348163709e-06)
0.08337             	(-2.125563664412e-02 6.452226937637e-07 -5.014545310887e-03)	(-1.025426581029e-04 -5.681242298161e-01 -3.528599559361e-05)	(-3.336382941023e-01 1.565697251092e-05 -1.189241682415e-01)	(1.436157367339e-05 2.508437313995e-01 4.257091402814e-07)
0.09337             	(-2.466218735565e-02 7.796648671891e-07 -6.268362946006e-03)	(-1.108106969534e-04 -7.201284736336e-01 -3.608908756687e-05)	(-3.476718482039e-01 1.123146217417e-05 -1.318393587823e-01)	(1.416907901165e-05 2.797511749420e-01 2.055193733591e-06)
0.10337             	(-2.820345214067e-02 9.219102040866e-07 -7.650826036582e-03)	(-1.181473284610e-04 -8.883129444436e-01 -3.624109494970e-05)	(-3.605811088001e-01 1.721760520534e-05 -1.446532593329e-01)	(1.106162553283e-05 3.073233783463e-01 -1.882216659547e-06)
0.11337             	(-3.186808142285e-02 1.087078917852e-06 -9.159448885399e-03)	(-1.242733593880e-04 -1.071898107797e+00 -3.525501677585e-05)	(-3.723447476360e-01 1.581613754774e-05 -1.570713104306e-01)	(9.919115828467e-06 3.335097333312e-01 -1.924227296589e-06)
0.12337             	(-3.564409699035e-02 1.251074414719e-06 -1.079069278800e-02)	(-1.293611568565e-04 -1.270030716530e+00 -3.382369782481e-05)	(-3.828583658652e-01 1.698296182574e-05 -1.691774700904e-01)	(7.417286884075e-06 3.581035422707e-01 -3.433803074166e-06)
0.13337             	(-3.951843242129e-02 1.428894902471e-06 -1.254258333379e-02)	(-1.329780183623e-04 -1.481727362114e+00 -3.144569468453e-05)	(-3.920087203222e-01 1.858113572464e-05 -1.812006390660e-01)	(4.780078780293e-06 3.808571539116e-01 -5.169321001569e-06)
0.14337             	(-4.347750228886e-02 1.606240463817e-06 -1.441320919661e-02)	(-1.352349566118e-04 -1.705925664078e+00 -2.854171242620e-05)	(-3.998052531923e-01 1.688797654444e-05 -1.929245334981e-01)	(2.685248379351e-06 4.017425554224e-01 -5.186157320234e-06)
0.15337             	(-4.750728196671e-02 1.782602452138e-06 -1.640109276410e-02)	(-1.358507609201e-04 -1.941475497849e+00 -2.507919902088e-05)	(-4.061506823769e-01 1.838442111980e-05 -2.046521800003e-01)	(-9.252780212037e-07 4.204814749446e-01 -6.968422469009e-06)
0.16337             	(-5.159328455586e-02 1.956470958054e-06 -1.850591333967e-02)	(-1.346318092710e-04 -2.187122972602e+00 -2.106720433112e-05)	(-4.110498354542e-01 1.638928006350e-05 -2.163119351146e-01)	(-3.672102783126e-06 4.369899717839e-01 -6.882913633675e-06)
0.17337             	(-5.572089356825e-02 2.118176158937e-06 -2.072779588184e-02)	(-1.315648044504e-04 -2.441534589554e+00 -1.677565999421e-05)	(-4.144719670221e-01 1.595176011303e-05 -2.280645733184e-01)	(-7.320091895972e-06 4.510741024402e-01 -7.665293923378e-06)
0.18337             	(-5.987531830682e-02 2.270766177961e-06 -2.306820692638e-02)	(-1.263492323252e-04 -2.703275547074e+00 -1.205206717246e-05)	(-4.164129806924e-01 1.456624369166e-05 -2.400176355907e-01)	(-1.109798328580e-05 4.625741967650e-01 -8.006428164640e-06)
0.19337             	(-6.404184506855e-02 2.404673306592e-06 -2.552951708281e-02)	(-1.189127116119e-04 -2.970826817958e+00 -7.151184991603e-06)	(-4.168923716540e-01 1.221518203463e-05 -2.522443956945e-01)	(-1.498459681739e-05 4.713559221931e-01 -7.816534834277e-06)
0.20337             	(-6.820592780414e-02 2.518617258555e-06 -2.811529485299e-02)	(-1.090387690727e-04 -3.242581722345e+00 -2.078096232459e-06)	(-4.159241754638e-01 1.057360835796e-05 -2.649111583419e-01)	(-1.950814045810e-05 4.772476458046e-01 -8.024321934676e-06)
0.21337             	(-7.235331929128e-02 2.608482073645e-06 -3.083032871104e-02)	(-9.656584605336e-05 -3.516850680227e+00 3.092898077097e-06)	(-4.135541219644e-01 7.399354659984e-06 -2.780956132686e-01)	(-2.394491343026e-05 4.801316244047e-01 -7.459413091907e-06)
0.22337             	(-7.647022270118e-02 2.669343483491e-06 -3.368051421427e-02)	(-8.143210870695e-05 -3.791870300756e+00 8.239288624377e-06)	(-4.098265600154e-01 4.772927309333e-06 -2.919414873758e-01)	(-2.867852855206e-05 4.798679527664e-01 -7.137776782152e-06)
0.23337             	(-8.054337364518e-02 2.700623231273e-06 -3.667298583573e-02)	(-6.354187102667e-05 -4.065805930040e+00 1.336192007190e-05)	(-4.048036287845e-01 1.483022247004e-06 -3.065528369171e-01)	(-3.344137734027e-05 4.763477811497e-01 -6.464257234305e-06)
0.24337             	(-8.456017169493e-02 2.698399839937e-06 -3.981590966142e-02)	(-4.284305477013e-05 -4.336764348451e+00 1.836983033893e-05)	(-3.985559811653e-01 -1.927700514181e-06 -3.220319282218e-01)	(-3.835309251963e-05 4.694755263240e-01 -5.722243728518e-06)
0.25337             	(-8.850874982569e-02 2.662976471200e-06 -4.311847041309e-02)	(-1.924582183063e-05 -4.602801462294e+00 2.330691270915e-05)	(-3.911596449869e-01 -5.156973233331e-06 -3.384802221112e-01)	(-4.342682425913e-05 4.591691875168e-01 -5.090053930286e-06)
0.26337             	(-9.237804461400e-02 2.593543378319e-06 -4.659070411658e-02)	(7.269209273877e-06 -4.861934829891e+00 2.817614355683e-05)	(-3.826993126754e-01 -8.729645342805e-06 -3.559665185861e-01)	(-4.840408546383e-05 4.453769057942e-01 -4.267831322316e-06)
0.27337             	(-9.615784267145e-02 2.490728565542e-06 -5.024331844295e-02)	(3.664020947346e-05 -5.112156980359e+00 3.299476662632e-05)	(-3.732602988140e-01 -1.183331721256e-05 -3.745563466880e-01)	(-5.326406482631e-05 4.280631716787e-01 -3.635592422401e-06)
0.28337             	(-9.983879890052e-02 2.356916886224e-06 -5.408750827390e-02)	(6.873824331029e-05 -5.351449245670e+00 3.781843991223e-05)	(-3.629309469998e-01 -1.492901865113e-05 -3.942816195027e-01)	(-5.779468386359e-05 4.072244092360e-01 -2.979857459351e-06)
0.29337             	(-1.034124386060e-01 2.193887526975e-06 -5.813469346539e-02)	(1.034241185409e-04 -5.577798132296e+00 4.268545919815e-05)	(-3.517969941036e-01 -1.767685319864e-05 -4.151554187946e-01)	(-6.217535205352e-05 3.828822568209e-01 -2.471804163289e-06)
0.30337             	(-1.068711228756e-01 2.005250076789e-06 -6.239629073005e-02)	(1.405695929268e-04 -5.789211073569e+00 4.768115859324e-05)	(-3.399398598140e-01 -2.005063683847e-05 -4.371640341377e-01)	(-6.626668256461e-05 3.550881245887e-01 -2.116768386029e-06)
0.31337             	(-1.102079964271e-01 1.795197990388e-06 -6.688342645961e-02)	(1.799269298761e-04 -5.983734124999e+00 5.288494610489e-05)	(-3.274348504889e-01 -2.195978044173e-05 -4.602631117753e-01)	(-6.979568389391e-05 3.239254192242e-01 -1.947635918972e-06)
0.32337             	(-1.134169103530e-01 1.568715837482e-06 -7.160665256111e-02)	(2.212084699624e-04 -6.159469709859e+00 5.837698152817e-05)	(-3.143479346900e-01 -2.333665013952e-05 -4.843821085236e-01)	(-7.290018392049e-05 2.895074946596e-01 -1.969303795995e-06)
0.33337             	(-1.164923253129e-01 1.329332843915e-06 -7.657564649937e-02)	(2.641433670277e-04 -6.314594947191e+00 6.418307119052e-05)	(-3.007350572854e-01 -2.453994857386e-05 -5.094166791292e-01)	(-7.550476099123e-05 2.519817343756e-01 -2.001574761907e-06)
0.34337             	(-1.194291988207e-01 1.080970380866e-06 -8.179890324772e-02)	(3.083899100794e-04 -6.447380179295e+00 7.032558980375e-05)	(-2.866396442734e-01 -2.513254403600e-05 -5.352346705412e-01)	(-7.744432854761e-05 2.115261654516e-01 -2.258965980080e-06)
0.35337             	(-1.222228580060e-01 8.287292884042e-07 -8.728345125497e-02)	(3.535221761512e-04 -6.556206467869e+00 7.684397293352e-05)	(-2.720921927883e-01 -2.531567445630e-05 -5.616749309078e-01)	(-7.859639324853e-05 1.683492444205e-01 -2.638527459943e-06)
0.36337             	(-1.248688696109e-01 5.748693459854e-07 -9.303456289421e-02)	(3.991426559773e-04 -6.639582995154e+00 8.368456885689e-05)	(-2.571101281823e-01 -2.545631402745e-05 -5.885473969408e-01)	(-7.918710886486e-05 1.226897398001e-01 -2.924235371326e-06)
0.37337             	(-1.273629087306e-01 3.217069074486e-07 -9.905547938080e-02)	(4.448361794311e-04 -6.696163870348e+00 9.077428409519e-05)	(-2.416976957626e-01 -2.517617367992e-05 -6.156359003768e-01)	(-7.893414298546e-05 7.481477359841e-02 -3.284428668397e-06)
0.38337             	(-1.297006321065e-01 7.335523882875e-08 -1.053471606753e-01)	(4.900508083235e-04 -6.724763759158e+00 9.806154368815e-05)	(-2.258469794137e-01 -2.449416004405e-05 -6.427003585271e-01)	(-7.764913400754e-05 2.501767174718e-02 -3.690847156677e-06)
0.39337             	(-1.318775646407e-01 -1.664391077428e-07 -1.119080686723e-01)	(5.341880501445e-04 -6.724371909408e+00 1.054612713767e-04)	(-2.095395274378e-01 -2.346470927026e-05 -6.694812408599e-01)	(-7.536142467113e-05 -2.638548513554e-02 -4.078689135516e-06)
0.40337             	(-1.338890080416e-01 -3.939933419869e-07 -1.187339817613e-01)	(5.766283531274e-04 -6.694164415980e+00 1.128673552972e-04)	(-1.927491527297e-01 -2.204613757856e-05 -6.957013769482e-01)	(-7.196931634504e-05 -7.905855840542e-02 -4.446254408644e-06)
0.41337             	(-1.357299746986e-01 -6.060355919240e-07 -1.258178322451e-01)	(6.167987108371e-04 -6.633514863097e+00 1.201680678501e-04)	(-1.754441786846e-01 -2.036231240885e-05 -7.210687198151e-01)	(-6.773442459165e-05 -1.326483188432e-01 -4.747760416403e-06)
0.42337             	(-1.373951469620e-01 -8.002607311821e-07 -1.331495965423e-01)	(6.541754401279e-04 -6.542002698264e+00 1.272475470817e-04)	(-1.575902739964e-01 -1.848271544277e-05 -7.452841396286e-01)	(-6.256252652006e-05 -1.867893972700e-01 -4.978836876206e-06)
0.43337             	(-1.388788717523e-01 -9.756220757105e-07 -1.407162260809e-01)	(6.882739964488e-04 -6.419419576832e+00 1.339750038424e-04)	(-1.391546840516e-01 -1.658955346291e-05 -7.680417680783e-01)	(-5.667791236552e-05 -2.411064177305e-01 -5.054174838798e-06)
0.44337             	(-1.401751923629e-01 -1.130614412834e-06 -1.485016141120e-01)	(7.186997748776e-04 -6.265773661800e+00 1.402577079161e-04)	(-1.201094380732e-01 -1.440891396169e-05 -7.890358381546e-01)	(-5.016043963255e-05 -2.952190019245e-01 -5.129568260600e-06)
0.45337             	(-1.412779153490e-01 -1.261946229896e-06 -1.564866192058e-01)	(7.449908259559e-04 -6.081291382872e+00 1.460520533349e-04)	(-1.004351591510e-01 -1.185744945087e-05 -8.079651805939e-01)	(-4.268804973875e-05 -3.487456336202e-01 -5.215172112559e-06)
0.46337             	(-1.421807151255e-01 -1.367834375346e-06 -1.646491299835e-01)	(7.668314759000e-04 -5.866416888359e+00 1.513046887259e-04)	(-8.012479614859e-02 -9.320179639160e-06 -8.245369749542e-01)	(-3.508118532570e-05 -4.013078477425e-01 -5.175654761883e-06)
0.47337             	(-1.428772708288e-01 -1.447522392493e-06 -1.729641970635e-01)	(7.840655332387e-04 -5.621808503516e+00 1.559746648349e-04)	(-5.918634451649e-02 -6.617423790239e-06 -8.384764410455e-01)	(-2.706313313875e-05 -4.525364907943e-01 -5.097034182644e-06)
0.48337             	(-1.433614256250e-01 -1.498342054829e-06 -1.814042262474e-01)	(7.964613984758e-04 -5.348332180881e+00 1.600841014235e-04)	(-3.764461470995e-02 -3.546508676775e-06 -8.495293957269e-01)	(-1.863967240845e-05 -5.020759603294e-01 -5.106283672611e-06)
0.49337             	(-1.436273637870e-01 -1.518010426917e-06 -1.899391970360e-01)	(8.039777316317e-04 -5.047052687597e+00 1.637014414229e-04)	(-1.554301769362e-02 -3.871657409912e-07 -8.574647620078e-01)	(-1.045903758115e-05 -5.495878649009e-01 -5.140589557338e-06)
0.50337             	(-1.436698086869e-01 -1.504544097238e-06 -1.985369201012e-01)	(8.065091091964e-04 -4.719222402926e+00 1.669133693691e-04)	(7.054037718463e-03 3.080431676838e-06 -8.620798510240e-01)	(-1.644344024354e-06 -5.947557061207e-01 -5.317899619237e-06)
0.51337             	(-1.434842295358e-01 -1.454850158299e-06 -2.071633560923e-01)	(8.039046642222e-04 -4.366266672596e+00 1.698542611459e-04)	(3.006179249449e-02 6.858356111026e-06 -8.632073472027e-01)	(7.089061203215e-06 -6.372922155080e-01 -5.668629737346e-06)
0.52337             	(-1.430670474894e-01 -1.372179394744e-06 -2.157829613428e-01)	(7.964685040186e-04 -3.989767462678e+00 1.725231802035e-04)	(5.337461678666e-02 9.675796599914e-06 -8.607137028819e-01)	(1.487362959345e-05 -6.769379534082e-01 -5.541001406012e-06)
0.53337             	(-1.424158416469e-01 -1.264063195065e-06 -2.243590471225e-01)	(7.846656967057e-04 -3.591446408139e+00 1.748172738463e-04)	(7.686655172018e-02 1.194744333593e-05 -8.545034530662e-01)	(2.202162033014e-05 -7.134648230573e-01 -5.193897728601e-06)
0.54337             	(-1.415295413450e-01 -1.131382973938e-06 -2.328541498325e-01)	(7.688101361012e-04 -3.173146503174e+00 1.768374163894e-04)	(1.003935086621e-01 1.458860088943e-05 -8.445170889430e-01)	(2.874851401226e-05 -7.466772975865e-01 -5.127161335073e-06)
0.55337             	(-1.404085548550e-01 -9.773985112347e-07 -2.412304173029e-01)	(7.487985899723e-04 -2.736813425746e+00 1.784964846892e-04)	(1.238037893208e-01 1.620829165125e-05 -8.307364051243e-01)	(3.628690664807e-05 -7.764124699208e-01 -4.269616299096e-06)
0.56337             	(-1.390549798185e-01 -8.049472181371e-07 -2.494499502926e-01)	(7.242160277327e-04 -2.284479483282e+00 1.795552551733e-04)	(1.469112179933e-01 1.828196696826e-05 -8.131701928141e-01)	(4.450291803140e-05 -8.025308532426e-01 -3.189942353044e-06)
0.57337             	(-1.374728322271e-01 -6.026149697938e-07 -2.574751391575e-01)	(6.949540084453e-04 -1.818247023757e+00 1.802600808331e-04)	(1.695183002856e-01 2.218448270039e-05 -7.918675801686e-01)	(5.246441479745e-05 -8.249274467451e-01 -2.931772026043e-06)
0.58337             	(-1.356680353361e-01 -3.549137443608e-07 -2.652690961942e-01)	(6.609609026617e-04 -1.340267587688e+00 1.810958337811e-04)	(1.914410779080e-01 2.735576238622e-05 -7.669238271774e-01)	(6.088876535146e-05 -8.435355368675e-01 -3.260757419231e-06)
0.59337             	(-1.336484167379e-01 -4.418030170805e-08 -2.727960375700e-01)	(6.220542848715e-04 -8.527232844049e-01 1.826329572624e-04)	(2.124826417284e-01 3.479092614432e-05 -7.384644479784e-01)	(6.949986847361e-05 -8.583151318814e-01 -4.708282456716e-06)
0.60337             	(-1.314237714217e-01 3.433912420718e-07 -2.800216507943e-01)	(5.783084201787e-04 -3.578093796788e-01 1.853601084474e-04)	(2.324464215137e-01 4.272338261164e-05 -7.066581968785e-01)	(7.765220479054e-05 -8.692602988736e-01 -6.428039298242e-06)
0.61337             	(-1.290058380503e-01 8.072234877959e-07 -2.869134424362e-01)	(5.301227704633e-04 1.422827281079e-01 1.893709450738e-04)	(2.511402527774e-01 5.004306653319e-05 -6.717001315124e-01)	(8.484376976559e-05 -8.763904704898e-01 -7.891195940590e-06)
0.62337             	(-1.264082295359e-01 1.341256099112e-06 -2.934410368949e-01)	(4.779253679176e-04 6.453811188450e-01 1.946057150062e-04)	(2.683814500906e-01 5.676345572995e-05 -6.338187602101e-01)	(9.147458700856e-05 -8.797542060798e-01 -9.130130485388e-06)
0.63337             	(-1.236463189248e-01 1.936879576363e-06 -2.995765190994e-01)	(4.221980619288e-04 1.149350243597e+00 2.009717019484e-04)	(2.840006721288e-01 6.236123972038e-05 -5.932776806971e-01)	(9.695594887332e-05 -8.794299056458e-01 -1.004409469271e-05)
0.64337             	(-1.207370993126e-01 2.585149658795e-06 -3.052947215053e-01)	(3.637950517985e-04 1.652105964161e+00 2.084706867380e-04)	(2.978432503089e-01 6.729277676594e-05 -5.503628004774e-01)	(1.005804126893e-04 -8.755186264831e-01 -1.114628623868e-05)
0.65337             	(-1.176990191416e-01 3.274537246970e-06 -3.105734484566e-01)	(3.035945437721e-04 2.151628478917e+00 2.170602073853e-04)	(3.097727839022e-01 7.058474086910e-05 -5.053825897889e-01)	(1.029692478761e-04 -8.681438883544e-01 -1.185840574541e-05)
0.66337             	(-1.145517815709e-01 3.989921704974e-06 -3.153936812763e-01)	(2.423659989422e-04 2.645974758627e+00 2.265529984370e-04)	(3.196747302249e-01 7.249215073160e-05 -4.586639741604e-01)	(1.038911002400e-04 -8.574501576423e-01 -1.232610661447e-05)
0.67337             	(-1.113161331331e-01 4.720326604299e-06 -3.197397099042e-01)	(1.807705034910e-04 3.133288948136e+00 2.368440942156e-04)	(3.274549573390e-01 7.358882913357e-05 -4.105417514169e-01)	(1.039652275776e-04 -8.435972629347e-01 -1.274985565955e-05)
0.68337             	(-1.080136357984e-01 5.457591545202e-06 -3.235992400828e-01)	(1.192612510298e-04 3.611811867478e+00 2.478551348450e-04)	(3.330445096126e-01 7.386415904703e-05 -3.613642842975e-01)	(1.033047130983e-04 -8.267628357111e-01 -1.304595513835e-05)
0.69337             	(-1.046664076410e-01 6.200171002463e-06 -3.269634992814e-01)	(5.805561166572e-05 4.079890257512e+00 2.596192650695e-04)	(3.364011218540e-01 7.465173240515e-05 -3.114875554245e-01)	(1.026271159195e-04 -8.071389779218e-01 -1.367818774243e-05)
0.70337             	(-1.012968658248e-01 6.952427012765e-06 -3.298272707322e-01)	(-3.028410890789e-06 4.535983751150e+00 2.722435465354e-04)	(3.375072414006e-01 7.579946965529e-05 -2.612667347292e-01)	(1.026056212080e-04 -7.849276552308e-01 -1.436037210189e-05)
0.71337             	(-9.792748341004e-02 7.717832443527e-06 -3.321888704723e-01)	(-6.410087286955e-05 4.978669814853e+00 2.858070709102e-04)	(3.363692415439e-01 7.728161649706e-05 -2.110532132874e-01)	(1.023198865618e-04 -7.603382186464e-01 -1.529170973909e-05)
0.72337             	(-9.458056096614e-02 8.502581167893e-06 -3.340500841414e-01)	(-1.252227086595e-04 5.406646673301e+00 3.004733148639e-04)	(3.330152472360e-01 7.966812837613e-05 -1.611895205412e-01)	(1.025202233753e-04 -7.335828428740e-01 -1.657913427459e-05)
0.73337             	(-9.127801411259e-02 9.313462593828e-06 -3.354160525187e-01)	(-1.865607966290e-04 5.818734164962e+00 3.164273615204e-04)	(3.274941234739e-01 8.250815681096e-05 -1.120041549260e-01)	(1.028243282581e-04 -7.048738654030e-01 -1.815489352392e-05)
0.74337             	(-8.804117413262e-02 1.015605399565e-05 -3.362951012598e-01)	(-2.479727476157e-04 6.213873438119e+00 3.338953427049e-04)	(3.198738725204e-01 8.601012355403e-05 -6.380559328884e-02)	(1.025421034224e-04 -6.744223998895e-01 -2.033512956927e-05)
0.75337             	(-8.489058829047e-02 1.103494401586e-05 -3.366985737089e-01)	(-3.091268616099e-04 6.591127272032e+00 3.531250605261e-04)	(3.102432959102e-01 8.976788048695e-05 -1.688889652489e-02)	(1.017075922711e-04 -6.424419048676e-01 -2.296759335543e-05)
0.76337             	(-8.184583971398e-02 1.195163817471e-05 -3.366406696891e-01)	(-3.697441990610e-04 6.949679983906e+00 3.742831862408e-04)	(2.987064193877e-01 9.357095128348e-05 2.846970048227e-02)	(1.004753014424e-04 -6.091431692718e-01 -2.592520327347e-05)
0.77337             	(-7.892543281253e-02 1.291060283603e-05 -3.361381660152e-01)	(-4.297643281858e-04 7.288832301940e+00 3.975840836313e-04)	(2.853749609016e-01 9.822198098023e-05 7.203103429601e-02)	(9.945511274668e-05 -5.747217551938e-01 -2.942627270762e-05)
0.78337             	(-7.614669144613e-02 1.392111750653e-05 -3.352101150797e-01)	(-4.894245857344e-04 7.607995330516e+00 4.233439120137e-04)	(2.703733123791e-01 1.038809531200e-04 1.135791528137e-01)	(9.907123010227e-05 -5.393673861107e-01 -3.347700859225e-05)
0.79337             	(-7.352564646002e-02 1.499572590991e-05 -3.338776087540e-01)	(-5.491779234470e-04 7.906687201157e+00 4.519558739998e-04)	(2.538356848411e-01 1.110407275551e-04 1.529221123108e-01)	(9.964694616614e-05 -5.032639337605e-01 -3.822477139578e-05)
0.80337             	(-7.107700602255e-02 1.615190841926e-05 -3.321634285719e-01)	(-6.095664142103e-04 8.184525014337e+00 4.839669233059e-04)	(2.358924026544e-01 1.201957743153e-04 1.899139241214e-01)	(1.011669421892e-04 -4.665729932176e-01 -4.399170376516e-05)
0.81337             	(-6.881417454905e-02 1.740667894333e-05 -3.300916865736e-01)	(-6.712428650265e-04 8.441214847939e+00 5.198653607825e-04)	(2.166738920440e-01 1.307583305003e-04 2.244344755343e-01)	(1.040275343805e-04 -4.294435591617e-01 -5.017055519002e-05)
0.82337             	(-6.674925491859e-02 1.877547446337e-05 -3.276875824181e-01)	(-7.349004153475e-04 8.676545164098e+00 5.600283725957e-04)	(1.963100340491e-01 1.430007735071e-04 2.563863555718e-01)	(1.079776762507e-04 -3.920142122141e-01 -5.693367360750e-05)
0.83337             	(-6.489307531610e-02 2.026990632220e-05 -3.249771381089e-01)	(-8.009888158701e-04 8.890379176180e+00 6.047652686880e-04)	(1.749258864482e-01 1.558855982596e-04 2.857025062670e-01)	(1.124354071856e-04 -3.544073027784e-01 -6.397912566912e-05)
0.84337             	(-6.325522586702e-02 2.189366557564e-05 -3.219869115757e-01)	(-8.696781092991e-04 9.082645839857e+00 6.541878362849e-04)	(1.526440033675e-01 1.688662524267e-04 3.123428003709e-01)	(1.170313428700e-04 -3.167299643769e-01 -7.106342800851e-05)
0.85337             	(-6.184410240378e-02 2.364464470205e-05 -3.187437111301e-01)	(-9.408887612688e-04 9.253331062988e+00 7.082501963923e-04)	(1.295806892815e-01 1.813295728565e-04 3.362972887491e-01)	(1.212924515531e-04 -2.790738641210e-01 -7.802251964267e-05)
0.86337             	(-6.066695733488e-02 2.551107776377e-05 -3.152743325696e-01)	(-1.014126713929e-03 9.402470257898e+00 7.666678789753e-04)	(1.058483244983e-01 1.919570394880e-04 3.575784233381e-01)	(1.242840763851e-04 -2.415201380710e-01 -8.443459694712e-05)
0.87337             	(-5.972992832992e-02 2.747741203513e-05 -3.116053545535e-01)	(-1.088718922726e-03 9.530142556042e+00 8.290596182805e-04)	(8.155747649410e-02 2.013098147840e-04 3.762171798834e-01)	(1.263475281878e-04 -2.041402587002e-01 -9.050801375212e-05)
0.88337             	(-5.903806780071e-02 2.952623528814e-05 -3.077629395914e-01)	(-1.164066509091e-03 9.636464551419e+00 8.949550151767e-04)	(5.681462934662e-02 2.084548358168e-04 3.922658125480e-01)	(1.274163940613e-04 -1.669935224782e-01 -9.570177987017e-05)
0.89337             	(-5.859538453900e-02 3.163558057655e-05 -3.037726366872e-01)	(-1.239403271635e-03 9.721584071562e+00 9.637379873532e-04)	(3.172202299581e-02 2.134142218655e-04 4.057947682891e-01)	(1.269994747570e-04 -1.301296585275e-01 -1.001613018085e-04)
0.90337             	(-5.840489069441e-02 3.378706578054e-05 -2.996592092533e-01)	(-1.313762228752e-03 9.785675008721e+00 1.034951312541e-03)	(6.376745922297e-03 2.168828189331e-04 4.168907184967e-01)	(1.249110456639e-04 -9.358992072244e-02 -1.044268361451e-04)
0.91337             	(-5.846866264571e-02 3.596807539246e-05 -2.954464711660e-01)	(-1.386198666680e-03 9.828932153344e+00 1.108363333815e-03)	(-1.913113618292e-02 2.193191034515e-04 4.256568989526e-01)	(1.214223873456e-04 -5.740600364622e-02 -1.087407224681e-04)
0.92337             	(-5.878790075116e-02 3.817550718175e-05 -2.911571302391e-01)	(-1.456136719350e-03 9.851566080918e+00 1.184023178343e-03)	(-4.471648490584e-02 2.221672544055e-04 4.322112864223e-01)	(1.175364388676e-04 -2.160131291080e-02 -1.136215872158e-04)
0.93337             	(-5.936296711867e-02 4.041469266973e-05 -2.868126587274e-01)	(-1.523182814284e-03 9.853799204406e+00 1.262253315455e-03)	(-7.029678859751e-02 2.256698431904e-04 4.366830159227e-01)	(1.128805150252e-04 1.380623650074e-02 -1.193892487363e-04)
0.94337             	(-6.019342857580e-02 4.269069344528e-05 -2.824331671310e-01)	(-1.586788468561e-03 9.835861967620e+00 1.343424285410e-03)	(-9.579550282682e-02 2.295303119197e-04 4.392153033627e-01)	(1.072982257471e-04 4.880652663496e-02 -1.259735209497e-04)
0.95337             	(-6.127810861627e-02 4.500934469296e-05 -2.780372723064e-01)	(-1.646523403334e-03 9.797988646035e+00 1.427922588327e-03)	(-1.211405052677e-01 2.341999376156e-04 4.399636615584e-01)	(1.013574000159e-04 8.339630042722e-02 -1.334157279306e-04)
0.96337             	(-6.261511633671e-02 4.738077422994e-05 -2.736419933008e-01)	(-1.702349997804e-03 9.740414313718e+00 1.516144763111e-03)	(-1.462610388204e-01 2.400859697808e-04 4.390921395619e-01)	(9.584725256953e-05 1.175760272864e-01 -1.414599578129e-04)
0.97337             	(-6.420187395796e-02 4.981571730457e-05 -2.692626521913e-01)	(-1.754600805649e-03 9.663372198808e+00 1.608319168974e-03)	(-1.710904854302e-01 2.469026451459e-04 4.367760823387e-01)	(9.126048306935e-05 1.513516812912e-01 -1.495421412070e-04)
0.98337             	(-6.603515628199e-02 5.232301248119e-05 -2.649127771098e-01)	(-1.803733271976e-03 9.567090962959e+00 1.704524964175e-03)	(-1.955659793758e-01 2.545563901778e-04 4.331989339652e-01)	(8.754348261669e-05 1.847332283736e-01 -1.576234657767e-04)
0.99337             	(-6.811111320384e-02 5.490804704948e-05 -2.606040366831e-01)	(-1.850327977111e-03 9.451793298597e+00 1.804701671213e-03)	(-2.196254049929e-01 2.624505234801e-04 4.285491513627e-01)	(8.518415354410e-05 2.177315391238e-01 -1.651798561408e-04)
1.00337             	(-7.042526408962e-02 5.757507792146e-05 -2.563462067413e-01)	(-1.894991007823e-03 9.317696101083e+00 1.908731689516e-03)	(-2.432047721641e-01 2.709556509154e-04 4.230168370109e-01)	(8.379162918138e-05 2.503559785093e-01 -1.725233554173e-04)
1.01337             	(-7.297248892684e-02 6.033173391934e-05 -2.521471607170e-01)	(-1.938162510744e-03 9.165010990933e+00 2.016646239150e-03)	(-2.662401952803e-01 2.803755486604e-04 4.167923678298e-01)	(8.319536170945e-05 2.826155942633e-01 -1.799610270964e-04)
1.02337             	(-7.574703445017e-02 6.318433922818e-05 -2.480128789496e-01)	(-1.980315243176e-03 8.993944525066e+00 2.128465117723e-03)	(-2.886689093844e-01 2.901455131082e-04 4.100639856520e-01)	(8.368977989478e-05 3.145190139197e-01 -1.871336938608e-04)
1.03337             	(-7.874249255919e-02 6.613380612109e-05 -2.439475122943e-01)	(-2.021644797039e-03 8.804700849746e+00 2.244104358457e-03)	(-3.104227124209e-01 2.997478654728e-04 4.030093454260e-01)	(8.403409427666e-05 3.460660247442e-01 -1.941981299609e-04)
1.04337             	(-8.195174446949e-02 6.917501133235e-05 -2.399534773502e-01)	(-2.061988338479e-03 8.597487731223e+00 2.363347832052e-03)	(-3.314276696390e-01 3.084931767801e-04 3.957976433926e-01)	(8.423966559923e-05 3.772442033845e-01 -2.007286360812e-04)
1.05337             	(-8.536691056020e-02 7.230206747253e-05 -2.360315727508e-01)	(-2.101213939162e-03 8.372522796587e+00 2.485945634677e-03)	(-3.516055485032e-01 3.169180512560e-04 3.885832764810e-01)	(8.440190950495e-05 4.080315523703e-01 -2.070077724734e-04)
1.06337             	(-8.897933608726e-02 7.550521844498e-05 -2.321810921254e-01)	(-2.139040851014e-03 8.130036223410e+00 2.611569293235e-03)	(-3.708795569074e-01 3.237121432331e-04 3.815128486025e-01)	(8.391135736101e-05 4.384062597471e-01 -2.125438559198e-04)
1.07337             	(-9.277961924892e-02 7.876481030449e-05 -2.283998394294e-01)	(-2.175168999216e-03 7.870270807286e+00 2.739525909374e-03)	(-3.891770754259e-01 3.282062286688e-04 3.747376906008e-01)	(8.330368889790e-05 4.683460922673e-01 -2.165489502372e-04)
1.08337             	(-9.675760925463e-02 8.205684436025e-05 -2.246842443748e-01)	(-2.209372924937e-03 7.593485842195e+00 2.868843651634e-03)	(-4.064209257151e-01 3.302005824836e-04 3.683813203073e-01)	(8.228336988737e-05 4.978156929590e-01 -2.187829517418e-04)